####################################################################### 
# 
# This file contains crystal structure data downloaded from the 
# Cambridge Structural Database (CSD) hosted by the Cambridge 
# Crystallographic Data Centre (CCDC) in cooperation with FIZ Karlsruhe.
# 
# Please note that these data are only for research purposes or private use.
# For detailed information please see under Terms & Conditions.
# Full information about CCDC and FIZ Karlsruhe data access policies and 
# citation guidelines are available at http://www.ccdc.cam.ac.uk/access/V1
# 
# Audit and citation data items may have been added by FIZ Karlsruhe. 
# Please retain this information to preserve the provenance of 
# this file and to allow appropriate attribution of the data. 
# 
#######################################################################

data_run-cs2pbcl2i2
_audit_block_doi                 10.25505/fiz.icsd.cc20s4nm
_database_code_depnum_ccdc_archive 'CCDC 1870250'
loop_
_citation_id
_citation_doi
_citation_year
1 10.1021/jacs.8b06046 2018
_audit_update_record             
;
2018-10-10 deposited with the CCDC.	2024-01-05 downloaded from the CCDC.
;
_audit_creation_date             2017-08-08
_audit_creation_method           
;
Olex2 1.2
(compiled 2017.07.20 svn.r3457 for OlexSys, GUI svn.r5370)
;
_shelx_SHELXL_version_number     2014/7
_chemical_name_common            ?
_chemical_name_systematic        ?
_chemical_formula_moiety         'Cl2 Cs2 I2 Pb'
_chemical_formula_sum            'Cl2 Cs2 I2 Pb'
_chemical_formula_weight         797.71
_chemical_melting_point          ?
loop_
_atom_type_symbol
_atom_type_description
_atom_type_scat_dispersion_real
_atom_type_scat_dispersion_imag
_atom_type_scat_source
Cl Cl 0.1484 0.1585 'International Tables Vol C Tables 4.2.6.8 and 6.1.1.4'
Cs Cs -0.3680 2.1192 'International Tables Vol C Tables 4.2.6.8 and 6.1.1.4'
I I -0.4742 1.8119 'International Tables Vol C Tables 4.2.6.8 and 6.1.1.4'
Pb Pb -3.3944 10.1111 'International Tables Vol C Tables 4.2.6.8 and 6.1.1.4'

_shelx_space_group_comment       
;
The symmetry employed for this shelxl refinement is uniquely defined
by the following loop, which should always be used as a source of
symmetry information in preference to the above space-group names.
They are only intended as comments.
;
_space_group_crystal_system      tetragonal
_space_group_IT_number           139
_space_group_name_H-M_alt        'I 4/m m m'
_space_group_name_Hall           '-I 4 2'
loop_
_space_group_symop_operation_xyz
'x, y, z'
'-x, -y, z'
'-y, x, z'
'y, -x, z'
'-x, y, -z'
'x, -y, -z'
'y, x, -z'
'-y, -x, -z'
'x+1/2, y+1/2, z+1/2'
'-x+1/2, -y+1/2, z+1/2'
'-y+1/2, x+1/2, z+1/2'
'y+1/2, -x+1/2, z+1/2'
'-x+1/2, y+1/2, -z+1/2'
'x+1/2, -y+1/2, -z+1/2'
'y+1/2, x+1/2, -z+1/2'
'-y+1/2, -x+1/2, -z+1/2'
'-x, -y, -z'
'x, y, -z'
'y, -x, -z'
'-y, x, -z'
'x, -y, z'
'-x, y, z'
'-y, -x, z'
'y, x, z'
'-x+1/2, -y+1/2, -z+1/2'
'x+1/2, y+1/2, -z+1/2'
'y+1/2, -x+1/2, -z+1/2'
'-y+1/2, x+1/2, -z+1/2'
'x+1/2, -y+1/2, z+1/2'
'-x+1/2, y+1/2, z+1/2'
'-y+1/2, -x+1/2, z+1/2'
'y+1/2, x+1/2, z+1/2'

_cell_length_a                   5.6385(8)
_cell_length_b                   5.6385(8)
_cell_length_c                   18.879(4)
_cell_angle_alpha                90
_cell_angle_beta                 90
_cell_angle_gamma                90
_cell_volume                     600.2(2)
_cell_formula_units_Z            2
_cell_measurement_reflns_used    2382
_cell_measurement_temperature    293(2)
_cell_measurement_theta_max      29.068
_cell_measurement_theta_min      2.157
_shelx_estimated_absorpt_T_max   ?
_shelx_estimated_absorpt_T_min   ?
_exptl_absorpt_coefficient_mu    25.549
_exptl_absorpt_correction_T_max  ?
_exptl_absorpt_correction_T_min  ?
_exptl_absorpt_correction_type   Numerical
_exptl_absorpt_process_details   X-SHAPE
_exptl_absorpt_special_details   ?
_exptl_crystal_colour            white
_exptl_crystal_density_diffrn    4.414
_exptl_crystal_density_meas      ?
_exptl_crystal_density_method    ?
_exptl_crystal_description       plate
_exptl_crystal_F_000             664
_exptl_crystal_size_max          0.1222
_exptl_crystal_size_mid          0.118
_exptl_crystal_size_min          0.0065
_exptl_transmission_factor_max   0.6752
_exptl_transmission_factor_min   0.0650
_diffrn_reflns_av_R_equivalents  0.0626
_diffrn_reflns_av_unetI/netI     0.0345
_diffrn_reflns_Laue_measured_fraction_full 1.000
_diffrn_reflns_Laue_measured_fraction_max 1.000
_diffrn_reflns_limit_h_max       7
_diffrn_reflns_limit_h_min       -7
_diffrn_reflns_limit_k_max       7
_diffrn_reflns_limit_k_min       -7
_diffrn_reflns_limit_l_max       22
_diffrn_reflns_limit_l_min       -25
_diffrn_reflns_number            2382
_diffrn_reflns_point_group_measured_fraction_full 1.000
_diffrn_reflns_point_group_measured_fraction_max 1.000
_diffrn_reflns_theta_full        25.242
_diffrn_reflns_theta_max         29.068
_diffrn_reflns_theta_min         2.157
_diffrn_ambient_temperature      293(2)
_diffrn_detector_area_resol_mean ?
_diffrn_measured_fraction_theta_full 1.000
_diffrn_measured_fraction_theta_max 1.000
_diffrn_measurement_device_type  'Bruker APEX-II CCD'
_diffrn_measurement_method       '\w scans'
_diffrn_radiation_type           MoK\a
_diffrn_radiation_wavelength     0.71073
_diffrn_source                   ?
_diffrn_standards_number         0
_reflns_Friedel_coverage         0.000
_reflns_Friedel_fraction_full    .
_reflns_Friedel_fraction_max     .
_reflns_number_gt                258
_reflns_number_total             280
_reflns_special_details          
;
 Reflections were merged by SHELXL according to the crystal
 class for the calculation of statistics and refinement.
 
 _reflns_Friedel_fraction is defined as the number of unique
 Friedel pairs measured divided by the number that would be
 possible theoretically, ignoring centric projections and
 systematic absences.
;
_reflns_threshold_expression     'I > 2\s(I)'
_computing_cell_refinement       ?
_computing_data_collection       ?
_computing_data_reduction        ?
_computing_molecular_graphics    'Olex2 (Dolomanov et al., 2009)'
_computing_publication_material  'Olex2 (Dolomanov et al., 2009)'
_computing_structure_refinement  'XL (Sheldrick, 2008)'
_computing_structure_solution    'XT (Sheldrick, 2015)'
_refine_diff_density_max         2.015
_refine_diff_density_min         -1.595
_refine_diff_density_rms         0.261
_refine_ls_extinction_coef       0.0008(2)
_refine_ls_extinction_expression Fc^*^=kFc[1+0.001xFc^2^\l^3^/sin(2\q)]^-1/4^
_refine_ls_extinction_method     'SHELXL-2014/7 (Sheldrick 2014'
_refine_ls_goodness_of_fit_ref   1.242
_refine_ls_hydrogen_treatment    undef
_refine_ls_matrix_type           full
_refine_ls_number_parameters     13
_refine_ls_number_reflns         280
_refine_ls_number_restraints     0
_refine_ls_R_factor_all          0.0384
_refine_ls_R_factor_gt           0.0306
_refine_ls_restrained_S_all      1.242
_refine_ls_shift/su_max          0.000
_refine_ls_shift/su_mean         0.000
_refine_ls_structure_factor_coef Fsqd
_refine_ls_weighting_details     
'w=1/[\s^2^(Fo^2^)+(0.0326P)^2^+9.1121P] where P=(Fo^2^+2Fc^2^)/3'
_refine_ls_weighting_scheme      calc
_refine_ls_wR_factor_gt          0.0824
_refine_ls_wR_factor_ref         0.0844
_refine_special_details          ?
_olex2_refinement_description    
;
;
_atom_sites_solution_hydrogens   .
_atom_sites_solution_primary     dual
_atom_sites_solution_secondary   ?
loop_
_atom_site_label
_atom_site_type_symbol
_atom_site_fract_x
_atom_site_fract_y
_atom_site_fract_z
_atom_site_U_iso_or_equiv
_atom_site_adp_type
_atom_site_occupancy
_atom_site_site_symmetry_order
_atom_site_calc_flag
_atom_site_refinement_flags_posn
_atom_site_refinement_flags_adp
_atom_site_refinement_flags_occupancy
_atom_site_disorder_assembly
_atom_site_disorder_group
Pb01 Pb 0.5000 0.5000 0.5000 0.0267(4) Uani 1 16 d S T P . .
Cs00 Cs 0.0000 0.0000 0.36821(10) 0.0517(5) Uani 1 8 d S T P . .
I003 I 0.5000 0.5000 0.66796(10) 0.0573(6) Uani 1 8 d S T P . .
Cl04 Cl 0.5000 0.0000 0.5000 0.0553(16) Uani 1 8 d S T P . .

loop_
_atom_site_aniso_label
_atom_site_aniso_U_11
_atom_site_aniso_U_22
_atom_site_aniso_U_33
_atom_site_aniso_U_23
_atom_site_aniso_U_13
_atom_site_aniso_U_12
Pb01 0.0193(4) 0.0193(4) 0.0414(7) 0.000 0.000 0.000
Cs00 0.0523(6) 0.0523(6) 0.0505(9) 0.000 0.000 0.000
I003 0.0648(8) 0.0648(8) 0.0422(9) 0.000 0.000 0.000
Cl04 0.069(4) 0.017(2) 0.080(4) 0.000 0.000 0.000

_geom_special_details            
;
 All esds (except the esd in the dihedral angle between two l.s. planes)
 are estimated using the full covariance matrix.  The cell esds are taken
 into account individually in the estimation of esds in distances, angles
 and torsion angles; correlations between esds in cell parameters are only
 used when they are defined by crystal symmetry.  An approximate (isotropic)
 treatment of cell esds is used for estimating esds involving l.s. planes.
;
loop_
_geom_bond_atom_site_label_1
_geom_bond_atom_site_label_2
_geom_bond_distance
_geom_bond_site_symmetry_2
_geom_bond_publ_flag
Pb01 Cs00 4.6997(11) . ?
Pb01 Cs00 4.6997(11) 17_656 ?
Pb01 Cs00 4.6997(11) 17_566 ?
Pb01 Cs00 4.6997(11) 17_666 ?
Pb01 Cs00 4.6997(11) 1_665 ?
Pb01 Cs00 4.6997(11) 17_556 ?
Pb01 I003 3.171(2) . ?
Pb01 I003 3.171(2) 17_666 ?
Pb01 Cl04 2.8193(4) 1_565 ?
Pb01 Cl04 2.8193(4) 3_655 ?
Pb01 Cl04 2.8193(4) . ?
Pb01 Cl04 2.8193(4) 3 ?
Cs00 Pb01 4.6997(11) 1_455 ?
Cs00 Pb01 4.6997(11) 1_445 ?
Cs00 I003 4.0451(7) 17_566 ?
Cs00 I003 4.0451(7) 17_656 ?
Cs00 I003 4.0451(7) 17_556 ?
Cs00 I003 3.781(3) 9_444 ?
Cs00 I003 4.0451(7) 17_666 ?
Cs00 Cl04 3.7601(13) 3_545 ?
Cs00 Cl04 3.7601(13) . ?
Cs00 Cl04 3.7601(13) 1_455 ?
Cs00 Cl04 3.7601(13) 3 ?
I003 Cs00 4.0451(7) 17_556 ?
I003 Cs00 4.0451(7) 17_656 ?
I003 Cs00 4.0451(7) 17_566 ?
I003 Cs00 3.781(3) 9 ?
I003 Cs00 4.0451(7) 17_666 ?
Cl04 Pb01 2.8193(4) 1_545 ?
Cl04 Cs00 3.7601(13) 1_655 ?
Cl04 Cs00 3.7601(13) 17_556 ?
Cl04 Cs00 3.7601(13) 17_656 ?

loop_
_geom_angle_atom_site_label_1
_geom_angle_atom_site_label_2
_geom_angle_atom_site_label_3
_geom_angle
_geom_angle_site_symmetry_1
_geom_angle_site_symmetry_3
_geom_angle_publ_flag
Cs00 Pb01 Cs00 180.0 . 17_666 ?
Cs00 Pb01 Cs00 73.723(19) 17_556 17_566 ?
Cs00 Pb01 Cs00 73.723(19) 17_556 17_656 ?
Cs00 Pb01 Cs00 63.93(4) . 17_556 ?
Cs00 Pb01 Cs00 106.277(19) . 17_656 ?
Cs00 Pb01 Cs00 116.07(4) 17_666 17_556 ?
Cs00 Pb01 Cs00 73.723(19) 17_666 17_566 ?
Cs00 Pb01 Cs00 116.07(4) . 1_665 ?
Cs00 Pb01 Cs00 106.277(19) 1_665 17_566 ?
Cs00 Pb01 Cs00 63.93(4) 17_666 1_665 ?
Cs00 Pb01 Cs00 73.723(19) 17_666 17_656 ?
Cs00 Pb01 Cs00 116.07(4) 17_566 17_656 ?
Cs00 Pb01 Cs00 106.277(19) 1_665 17_656 ?
Cs00 Pb01 Cs00 106.277(19) . 17_566 ?
Cs00 Pb01 Cs00 180.0 17_556 1_665 ?
I003 Pb01 Cs00 121.97(2) 17_666 17_556 ?
I003 Pb01 Cs00 58.03(2) . 17_556 ?
I003 Pb01 Cs00 121.97(2) 17_666 17_666 ?
I003 Pb01 Cs00 58.03(2) 17_666 . ?
I003 Pb01 Cs00 121.97(2) 17_666 17_566 ?
I003 Pb01 Cs00 58.03(2) . 17_666 ?
I003 Pb01 Cs00 121.97(2) . . ?
I003 Pb01 Cs00 58.03(2) 17_666 1_665 ?
I003 Pb01 Cs00 58.03(2) . 17_566 ?
I003 Pb01 Cs00 58.03(2) . 17_656 ?
I003 Pb01 Cs00 121.97(2) 17_666 17_656 ?
I003 Pb01 Cs00 121.97(2) . 1_665 ?
I003 Pb01 I003 180.0 . 17_666 ?
Cl04 Pb01 Cs00 53.138(10) . . ?
Cl04 Pb01 Cs00 126.862(10) 3_655 17_556 ?
Cl04 Pb01 Cs00 53.138(10) 3 17_556 ?
Cl04 Pb01 Cs00 53.138(9) . 17_656 ?
Cl04 Pb01 Cs00 126.862(10) 1_565 17_556 ?
Cl04 Pb01 Cs00 53.138(10) 3 . ?
Cl04 Pb01 Cs00 53.138(10) . 17_556 ?
Cl04 Pb01 Cs00 126.862(10) 3 17_656 ?
Cl04 Pb01 Cs00 53.138(10) 3_655 1_665 ?
Cl04 Pb01 Cs00 53.138(10) 1_565 17_666 ?
Cl04 Pb01 Cs00 126.862(10) 3 1_665 ?
Cl04 Pb01 Cs00 126.862(10) 3_655 . ?
Cl04 Pb01 Cs00 53.138(10) 1_565 1_665 ?
Cl04 Pb01 Cs00 126.862(10) 1_565 . ?
Cl04 Pb01 Cs00 126.862(10) . 1_665 ?
Cl04 Pb01 Cs00 53.138(10) 3_655 17_656 ?
Cl04 Pb01 Cs00 126.862(10) 3_655 17_566 ?
Cl04 Pb01 Cs00 126.862(10) 1_565 17_656 ?
Cl04 Pb01 Cs00 53.138(9) 3 17_566 ?
Cl04 Pb01 Cs00 126.862(10) 3 17_666 ?
Cl04 Pb01 Cs00 53.138(10) 1_565 17_566 ?
Cl04 Pb01 Cs00 126.862(10) . 17_666 ?
Cl04 Pb01 Cs00 126.862(10) . 17_566 ?
Cl04 Pb01 Cs00 53.138(10) 3_655 17_666 ?
Cl04 Pb01 I003 90.0 . . ?
Cl04 Pb01 I003 90.0 1_565 . ?
Cl04 Pb01 I003 90.0 3 . ?
Cl04 Pb01 I003 90.0 3_655 17_666 ?
Cl04 Pb01 I003 90.0 3_655 . ?
Cl04 Pb01 I003 90.0 3 17_666 ?
Cl04 Pb01 I003 90.0 1_565 17_666 ?
Cl04 Pb01 I003 90.0 . 17_666 ?
Cl04 Pb01 Cl04 90.0 3_655 1_565 ?
Cl04 Pb01 Cl04 180.0 3_655 3 ?
Cl04 Pb01 Cl04 90.0 3_655 . ?
Cl04 Pb01 Cl04 90.0 3 . ?
Cl04 Pb01 Cl04 180.0 1_565 . ?
Cl04 Pb01 Cl04 90.0 3 1_565 ?
Pb01 Cs00 Pb01 116.07(4) . 1_445 ?
Pb01 Cs00 Pb01 73.723(19) . 1_455 ?
Pb01 Cs00 Pb01 73.723(19) 1_445 1_455 ?
I003 Cs00 Pb01 95.127(17) 17_566 . ?
I003 Cs00 Pb01 95.127(17) 17_556 1_455 ?
I003 Cs00 Pb01 95.127(17) 17_566 1_445 ?
I003 Cs00 Pb01 95.127(17) 17_656 . ?
I003 Cs00 Pb01 41.68(3) 17_556 1_445 ?
I003 Cs00 Pb01 121.97(2) 9_444 1_445 ?
I003 Cs00 Pb01 121.97(2) 9_444 . ?
I003 Cs00 Pb01 157.75(5) 17_666 1_445 ?
I003 Cs00 Pb01 157.75(5) 17_556 . ?
I003 Cs00 Pb01 95.127(17) 17_656 1_445 ?
I003 Cs00 Pb01 41.68(3) 17_666 . ?
I003 Cs00 Pb01 121.97(2) 9_444 1_455 ?
I003 Cs00 Pb01 157.75(5) 17_656 1_455 ?
I003 Cs00 Pb01 95.127(17) 17_666 1_455 ?
I003 Cs00 Pb01 41.68(3) 17_566 1_455 ?
I003 Cs00 I003 80.28(4) 9_444 17_656 ?
I003 Cs00 I003 160.56(7) 17_556 17_666 ?
I003 Cs00 I003 80.28(4) 9_444 17_556 ?
I003 Cs00 I003 88.367(12) 17_556 17_656 ?
I003 Cs00 I003 88.367(12) 17_556 17_566 ?
I003 Cs00 I003 88.367(12) 17_666 17_656 ?
I003 Cs00 I003 80.28(4) 9_444 17_666 ?
I003 Cs00 I003 160.56(7) 17_566 17_656 ?
I003 Cs00 I003 80.28(4) 9_444 17_566 ?
I003 Cs00 I003 88.367(12) 17_666 17_566 ?
Cl04 Cs00 Pb01 36.862(9) 3 . ?
Cl04 Cs00 Pb01 95.71(3) . 1_455 ?
Cl04 Cs00 Pb01 36.862(10) 3_545 1_445 ?
Cl04 Cs00 Pb01 36.862(9) . . ?
Cl04 Cs00 Pb01 36.862(10) 1_455 1_455 ?
Cl04 Cs00 Pb01 95.71(3) 3_545 . ?
Cl04 Cs00 Pb01 36.862(10) 3 1_455 ?
Cl04 Cs00 Pb01 95.71(3) 1_455 . ?
Cl04 Cs00 Pb01 95.71(3) 3_545 1_455 ?
Cl04 Cs00 Pb01 95.71(3) 3 1_445 ?
Cl04 Cs00 Pb01 95.71(3) . 1_445 ?
Cl04 Cs00 Pb01 36.862(10) 1_455 1_445 ?
Cl04 Cs00 I003 65.74(2) 3 17_566 ?
Cl04 Cs00 I003 129.37(3) . 17_566 ?
Cl04 Cs00 I003 129.37(3) 1_455 17_656 ?
Cl04 Cs00 I003 129.37(3) 1_455 17_666 ?
Cl04 Cs00 I003 65.74(2) 1_455 17_566 ?
Cl04 Cs00 I003 131.43(2) 3 9_444 ?
Cl04 Cs00 I003 129.37(3) 3_545 17_666 ?
Cl04 Cs00 I003 65.74(2) 3_545 17_556 ?
Cl04 Cs00 I003 129.37(3) 3_545 17_566 ?
Cl04 Cs00 I003 65.74(2) 1_455 17_556 ?
Cl04 Cs00 I003 131.43(2) 1_455 9_444 ?
Cl04 Cs00 I003 131.43(2) 3_545 9_444 ?
Cl04 Cs00 I003 65.74(2) . 17_666 ?
Cl04 Cs00 I003 65.74(2) 3 17_666 ?
Cl04 Cs00 I003 129.37(3) 3 17_556 ?
Cl04 Cs00 I003 65.74(2) 3_545 17_656 ?
Cl04 Cs00 I003 129.37(3) . 17_556 ?
Cl04 Cs00 I003 129.37(3) 3 17_656 ?
Cl04 Cs00 I003 65.74(2) . 17_656 ?
Cl04 Cs00 I003 131.43(2) . 9_444 ?
Cl04 Cs00 Cl04 97.14(4) . 1_455 ?
Cl04 Cs00 Cl04 64.03(2) . 3_545 ?
Cl04 Cs00 Cl04 64.03(2) 3 1_455 ?
Cl04 Cs00 Cl04 64.03(2) 3_545 1_455 ?
Cl04 Cs00 Cl04 64.03(2) 3 . ?
Cl04 Cs00 Cl04 97.14(4) 3 3_545 ?
Pb01 I003 Cs00 180.0 . 9 ?
Pb01 I003 Cs00 80.28(4) . 17_656 ?
Pb01 I003 Cs00 80.28(4) . 17_566 ?
Pb01 I003 Cs00 80.28(4) . 17_666 ?
Pb01 I003 Cs00 80.28(4) . 17_556 ?
Cs00 I003 Cs00 160.56(7) 17_556 17_666 ?
Cs00 I003 Cs00 99.72(4) 9 17_666 ?
Cs00 I003 Cs00 88.367(12) 17_556 17_566 ?
Cs00 I003 Cs00 99.72(4) 9 17_556 ?
Cs00 I003 Cs00 99.72(4) 9 17_566 ?
Cs00 I003 Cs00 99.72(4) 9 17_656 ?
Cs00 I003 Cs00 88.367(12) 17_666 17_566 ?
Cs00 I003 Cs00 88.367(12) 17_556 17_656 ?
Cs00 I003 Cs00 88.367(12) 17_666 17_656 ?
Cs00 I003 Cs00 160.56(7) 17_656 17_566 ?
Pb01 Cl04 Pb01 180.0 1_545 . ?
Pb01 Cl04 Cs00 90.0 1_545 1_655 ?
Pb01 Cl04 Cs00 90.0 1_545 17_656 ?
Pb01 Cl04 Cs00 90.0 . 17_556 ?
Pb01 Cl04 Cs00 90.0 . 1_655 ?
Pb01 Cl04 Cs00 90.0 1_545 17_556 ?
Pb01 Cl04 Cs00 90.0 1_545 . ?
Pb01 Cl04 Cs00 90.0 . . ?
Pb01 Cl04 Cs00 90.0 . 17_656 ?
Cs00 Cl04 Cs00 97.14(4) . 1_655 ?
Cs00 Cl04 Cs00 82.86(4) . 17_556 ?
Cs00 Cl04 Cs00 97.14(4) 17_656 17_556 ?
Cs00 Cl04 Cs00 180.0 1_655 17_556 ?
Cs00 Cl04 Cs00 82.86(4) 17_656 1_655 ?
Cs00 Cl04 Cs00 180.0 17_656 . ?

loop_
_refln_index_h
_refln_index_k
_refln_index_l
_refln_F_squared_meas
_refln_F_squared_sigma
1 -1 0 7664.93 32.2
-1 1 0 7477.85 32.4
0 2 0 8898.61 30
-2 0 0 9999 50.09
0 -2 0 9484.95 31.3
2 0 0 9670.43 39
2 -2 0 6676.43 23
-2 2 0 6480.65 22.9
1 -3 0 3856.81 16.9
3 -1 0 3696.13 18.6
-3 -1 0 3299.07 42.2
1 3 0 3353.46 16.7
-1 3 0 3605.04 16.3
3 1 0 3703.23 27.3
-1 -3 0 3726.43 19.2
-3 1 0 3695.83 20.7
3 3 0 2039.7 16
3 3 0 1673.23 36.8
3 -3 0 1904.11 11.8
-3 3 0 2021.1 13.4
4 0 0 3264.97 19.2
0 -4 0 3396.86 16.8
0 4 0 3213.68 14.8
-4 0 0 3247.97 35.7
4 -2 0 2261.07 13.6
-4 2 0 2318.17 16.2
2 4 0 2313.47 14.3
-2 4 0 2517.75 13.6
2 -4 0 2532.85 13.5
4 2 0 2243.18 26.4
4 -4 0 1000 10.6
4 4 0 976 73.99
-4 4 0 996.9 11.7
4 4 0 992.6 13.4
5 1 0 990.1 14.1
-5 1 0 985.4 18
-1 5 0 1097.09 11.2
5 -1 0 1016.1 12.4
1 5 0 992.1 10.1
-5 -1 0 929.21 33
1 -5 0 1029.7 10.6
-3 5 0 644.34 11.1
-5 3 0 567.34 13.2
5 3 0 583.14 20.2
3 5 0 629.74 11.8
3 -5 0 626.64 9.6
5 -3 0 615.04 10.7
5 5 0 208.18 52.29
-5 5 0 238.88 12.1
5 5 0 200.38 13
5 -5 0 226.78 11.6
-6 0 0 817.32 98.29
6 0 0 734.23 11.5
0 -6 0 750.72 13
0 6 0 784.92 10.6
6 -2 0 583.44 11.7
-2 6 0 620.14 9.9
-6 2 0 514.15 20.3
2 -6 0 629.64 10.2
2 6 0 567.64 10.2
6 2 0 515.25 15.2
4 -6 0 293.77 11
6 4 0 220.68 22.5
6 -4 0 283.97 12.1
-6 4 0 270.17 14.2
6 4 0 233.08 14
4 6 0 272.07 48
-4 6 0 284.87 11.6
4 6 0 242.58 12.5
7 -1 0 185.18 12.1
-7 1 0 164.08 50.79
1 -7 0 229.08 11.6
-1 7 0 212.48 10.8
1 7 0 211.68 10.1
7 1 0 190.68 12.8
-7 3 0 128.79 20.4
7 3 0 113.19 16.8
3 -7 0 149.09 11.4
7 -3 0 112.29 12.9
3 7 0 123.09 12.7
-3 7 0 146.69 11.5
1 0 -1 448.86 16.6
0 -1 -1 405.36 11.8
-1 0 -1 442.56 18.7
1 0 1 436.96 15.8
-1 0 1 493.75 21.8
0 1 1 414.16 12.8
0 -1 1 443.86 12.1
0 1 -1 450.65 13.4
-2 1 1 388.06 9.9
-1 2 1 395.76 8.7
1 2 1 365.16 8.8
2 1 1 439.26 29.3
1 2 -1 400.26 9.8
-2 1 -1 375.26 9.8
1 -2 1 391.56 8.7
2 -1 -1 380.06 9.3
-1 -2 -1 401.06 10.2
2 -1 1 388.66 10.2
2 1 -1 424.46 42.8
-1 2 -1 411.56 9.9
1 -2 -1 405.76 9.9
0 -3 1 272.07 8.7
-3 0 1 290.77 18.6
0 -3 -1 277.17 7.6
3 0 1 275.97 10.3
0 3 1 254.37 8.3
0 3 -1 266.97 7.4
3 0 -1 272.57 9.5
-3 0 -1 284.37 20.2
-3 2 1 237.58 9
-3 2 -1 242.98 8
3 -2 -1 241.98 8.3
2 -3 1 243.68 6.9
3 2 1 256.07 38.6
3 2 -1 244.48 59.89
3 -2 1 225.78 7.1
2 -3 -1 243.58 8
-2 3 1 226.68 7.1
2 3 -1 232.18 8.1
-2 3 -1 237.38 7.2
2 3 1 227.88 8
1 -4 1 239.48 7.4
-4 1 -1 217.58 13.1
-4 -1 1 220.88 36.4
4 1 -1 240.28 10.7
-1 4 1 242.28 6.9
-4 -1 -1 219.78 22.2
4 1 1 239.48 11.3
1 4 -1 247.58 7.5
-4 1 1 237.38 11.2
4 -1 1 233.78 7.7
-1 -4 -1 244.08 8.6
1 4 1 255.37 8.4
4 -1 -1 228.58 9.6
1 -4 -1 247.68 7.1
-1 4 -1 255.27 7.4
-3 4 -1 158.18 8.9
4 -3 -1 145.99 8.8
-4 3 -1 154.88 10
4 3 1 155.68 31
3 4 -1 156.38 8.4
4 3 -1 191.18 46.1
3 -4 1 180.68 8.6
4 -3 1 155.18 7.4
3 -4 -1 155.58 8.6
-4 3 1 147.39 9.6
-3 4 1 150.78 7.8
3 4 1 160.88 9.1
4 3 1 154.58 10.2
5 0 -1 102.49 8.2
0 -5 -1 120.69 9
-5 0 1 107.89 33.7
-5 0 -1 86.09 37.6
0 5 -1 112.89 8.4
5 0 1 123.89 9.6
0 -5 1 116.89 9
0 5 1 119.79 7.1
2 5 -1 103.29 9.4
2 -5 -1 107.29 7.4
5 2 -1 94.09 12.2
-5 2 -1 108.49 10.8
5 2 1 100.89 12.5
5 -2 -1 95.69 9.4
-5 2 1 109.59 12.4
2 -5 1 111.79 7.7
-2 5 -1 102.79 7.8
-2 5 1 97.59 7.5
5 -2 1 105.59 7.6
2 5 1 113.09 7.5
4 5 1 120.29 57.59
4 5 -1 99.29 42.6
-4 5 -1 75.29 9.7
5 -4 -1 89.39 9.1
-5 4 1 83.09 11.8
-4 5 1 71.09 10.5
4 5 1 70.09 8.8
4 5 -1 82.29 10.9
5 4 1 68.89 26.1
4 -5 1 80.59 8.7
4 -5 -1 70.79 8.4
5 4 -1 71.09 34.4
5 4 1 67.39 11.4
-5 4 -1 80.69 12.4
5 -4 1 75.19 10.2
5 4 -1 65.59 11.9
1 -6 1 126.89 8.8
1 6 -1 128.09 10
1 -6 -1 122.39 8.8
-1 6 1 132.69 8.2
-6 1 1 71.59 22
-1 6 -1 124.09 8.3
6 -1 1 118.09 10.4
1 6 1 113.69 8.3
6 1 -1 106.79 12.1
-6 1 -1 96.89 29.2
6 -1 -1 103.89 10.5
6 1 1 112.29 10.6
-6 3 -1 79.09 13.8
6 -3 -1 91.99 10.4
6 3 -1 72.49 17.8
-6 3 1 81.39 14.9
3 6 1 79.99 9.4
3 6 -1 79.09 11
-3 6 -1 84.29 9.2
3 -6 1 75.09 8.9
-3 6 1 95.19 10.5
6 -3 1 73.29 10.6
6 3 1 67.39 14.7
3 -6 -1 97.19 9.1
0 -7 1 27.1 11.3
-7 0 1 76.09 67.19
7 0 -1 41.9 11.8
0 7 -1 45.6 11.2
0 7 1 50.09 10.9
-7 0 -1 11.8 49.3
7 0 1 39.9 11.1
0 -7 -1 53.89 11.3
2 7 -1 35.2 11.6
2 -7 1 56.49 11.8
-2 7 -1 53.69 10.1
7 2 -1 26.8 13.9
7 2 1 38.2 13.5
2 7 1 36.7 11.6
7 -2 1 23.3 10.3
-2 7 1 41.7 10.4
-7 2 -1 61.89 32.3
7 -2 -1 45 11.7
-7 2 1 43.4 23.5
2 -7 -1 43.7 10.8
0 0 -2 -12 42.1
0 0 2 327.67 63.99
1 1 2 18.6 9.2
1 -1 -2 20.9 7.9
-1 1 2 19.5 7.9
-1 1 -2 21 7.4
1 -1 2 18.1 8.5
-2 0 2 378.46 19.2
0 2 2 336.77 8.4
0 2 -2 344.67 9.4
0 -2 -2 350.96 10
0 -2 2 377.66 9.6
2 0 2 344.27 11.8
-2 0 -2 374.46 19.2
2 0 -2 373.26 12.5
-2 2 2 293.67 7.9
-2 2 -2 283.37 8
2 -2 2 287.07 7.6
2 2 2 356.16 10.6
2 -2 -2 304.97 8.7
1 3 -2 29.5 6.6
-1 3 -2 24 6.1
3 -1 2 34.1 7.8
-3 -1 2 23.9 34.9
-1 3 2 18.2 6
3 1 2 75.19 12.3
-1 -3 -2 63.39 9.4
3 1 -2 23.9 14.4
-3 1 2 25.9 9.6
-3 1 -2 31.1 10.3
1 -3 -2 20.2 6.2
1 3 2 55.59 8.2
3 -1 -2 22.7 6.7
1 -3 2 21.1 6.1
3 3 2 42.3 35.5
3 -3 -2 37.7 7.6
3 -3 2 35.7 7.6
3 3 -2 19.1 8.3
3 3 2 61.99 8.7
3 3 -2 40.5 21
-3 3 -2 43.4 8.2
-3 3 2 41.9 6.8
-4 0 -2 290.27 29.8
0 4 2 222.28 7.5
4 0 -2 218.58 9
0 4 -2 230.98 7.2
-4 0 2 198.18 18.7
0 -4 2 243.58 7.5
0 -4 -2 220.88 8.3
4 0 2 260.77 9.4
2 -4 2 208.98 7.3
4 2 2 212.48 14.7
2 4 2 202.88 7.7
2 -4 -2 213.78 7.7
-4 2 -2 194.78 9.8
-2 4 2 215.38 9
4 2 -2 194.18 19.3
2 4 -2 207.38 9.1
-2 4 -2 209.78 7.6
-4 2 2 201.78 10.4
4 -2 -2 208.08 8.8
4 -2 2 209.88 8.8
4 4 2 138.89 9.7
4 -4 2 131.09 8
-4 4 2 142.09 8.7
4 4 -2 139.09 10.9
-4 4 -2 146.59 10.7
4 -4 -2 136.19 7.9
4 4 -2 131.59 52.19
4 4 2 125.69 57.99
5 -1 -2 36.6 9.5
1 -5 2 31.9 7.2
1 5 2 42.2 7.3
1 -5 -2 44.3 9.1
5 1 -2 36.7 9.6
-5 1 2 42.7 15.5
-5 1 -2 41.8 14.4
-1 5 -2 43.2 7.1
5 -1 2 42.2 7.1
-5 -1 2 39.3 33.3
5 1 2 46.2 10.4
-1 5 2 45.3 8.1
1 5 -2 45.8 7.2
-1 -5 -2 54.49 8.9
5 -3 2 50.39 8.8
-3 5 -2 46.9 8.2
5 3 2 51.39 11
3 5 -2 48.8 9.4
3 -5 -2 43.5 7.8
5 3 2 43.6 16.1
3 -5 2 56.29 7.6
5 3 -2 48.7 24.6
-5 3 -2 60.39 11.6
5 -3 -2 42.9 8.1
-3 5 2 34.1 9.2
-5 3 2 40.7 10.1
3 5 2 50.99 9.9
5 5 -2 36.6 13.3
5 -5 2 38.2 9.8
-5 5 -2 49.2 11.8
-5 5 2 28 11.5
5 5 2 37.1 41
5 5 -2 44.5 91.29
5 5 2 38.6 12.3
5 -5 -2 31.7 10.2
0 6 2 138.59 8.4
6 0 -2 114.09 11.6
0 -6 -2 133.19 9.8
-6 0 2 143.89 48.2
-6 0 -2 150.68 64.99
6 0 2 135.49 10
0 -6 2 112.69 9
0 6 -2 127.99 8.4
6 -2 2 109.59 10
6 2 2 97.69 12.5
-2 6 -2 129.09 9.8
6 -2 -2 110.99 9
2 -6 -2 104.09 8.9
2 -6 2 104.29 8.5
2 6 -2 114.59 10.3
6 2 -2 90.59 13.9
-6 2 2 103.09 17.7
-2 6 2 118.99 9.7
2 6 2 121.69 10
-6 2 -2 84.09 19.9
4 -6 -2 54.89 11.5
6 4 2 55.69 18.1
4 6 -2 21.6 33.5
6 4 -2 60.19 25.7
4 6 2 79.99 74.09
4 6 -2 53.89 12.1
6 4 -2 61.79 12.4
-4 6 -2 89.99 11.5
6 -4 -2 66.09 11.9
-6 4 -2 70.89 14.3
6 -4 2 77.39 10.1
-6 4 2 60.49 15.2
4 -6 2 68.19 12
6 4 2 63.69 13.2
-4 6 2 91.69 12
4 6 2 69.89 12.5
7 -1 2 19.4 11
-7 1 -2 3.2 72.99
1 -7 -2 32.9 11
1 7 -2 34.5 10
-1 7 -2 33.8 11.3
1 7 2 27.2 11
7 1 2 36.2 12.2
7 1 -2 27 11.5
7 -1 -2 22.1 11.6
-7 1 2 6.2 34.8
-1 7 2 29.4 10
1 -7 2 42 10.2
3 7 2 33.5 13
7 -3 -2 27.8 11
7 3 -2 35.5 17.2
7 -3 2 34.1 13
-3 7 -2 35.7 11.4
-3 7 2 21.4 11
7 3 2 18.4 16.6
3 7 -2 30.3 12.9
3 -7 -2 38.2 11.2
7 3 2 25.5 16.7
-7 3 2 28.8 18.8
3 -7 2 26.2 10.9
-7 3 -2 35.6 24.4
0 1 -3 636.44 13.6
-1 0 3 661.53 25.8
1 0 -3 654.83 25.1
1 0 3 586.94 20.1
-1 0 -3 575.94 20.9
0 -1 -3 573.14 13.4
0 1 3 589.64 13.7
2 1 3 592.54 24.6
-2 1 -3 530.05 10.2
2 -1 3 537.75 10.3
1 2 -3 559.04 11.1
1 -2 3 551.24 9.3
-2 1 3 541.15 12.1
1 -2 -3 553.14 9.4
-1 2 3 537.25 9.3
-1 -2 -3 -6.1 7.9
2 1 -3 622.24 38
1 2 3 506.45 11
-1 2 -3 560.64 9.7
2 -1 -3 542.55 10.3
3 0 -3 423.76 12.1
-3 0 3 431.86 16.4
0 3 3 352.26 7.6
0 3 -3 396.36 8.2
-3 0 -3 453.55 23.2
0 -3 3 426.36 8.4
3 0 3 380.16 10.9
0 -3 -3 383.36 8.3
2 3 3 365.26 9.5
-3 2 -3 357.46 9.8
-3 2 3 327.97 8.5
2 3 -3 365.56 8.8
-2 3 -3 350.56 7.9
-2 3 3 358.96 7.6
3 2 3 366.56 11.4
3 2 -3 374.16 29
3 -2 3 361.26 8.8
2 -3 -3 370.56 8.8
3 -2 -3 337.37 9.1
3 2 3 350.76 27.7
2 -3 3 349.17 7.5
1 4 3 321.77 7.8
-1 4 3 337.57 7.2
-4 -1 3 430.26 45.1
4 -1 -3 331.07 9.7
4 1 3 342.17 11.2
1 4 -3 360.96 8.9
1 -4 3 349.37 8
-4 1 3 364.46 13.3
-1 -4 -3 378.46 10.9
-1 4 -3 361.96 9
4 -1 3 352.76 9.3
-4 1 -3 349.07 13.7
1 -4 -3 353.86 7.7
4 1 -3 337.37 13.1
3 -4 3 247.88 7.7
-4 3 -3 246.98 9.2
-4 3 3 244.08 8.7
4 -3 3 247.48 8.9
-3 4 3 238.48 7.9
3 -4 -3 234.28 7.7
-3 4 -3 244.18 9.5
4 3 -3 261.67 40.2
3 4 -3 231.88 9.1
3 4 3 246.88 9.4
4 3 3 229.18 25.3
4 3 3 244.68 11.7
4 -3 -3 232.88 8
-5 0 3 174.68 25.3
-5 0 -3 206.58 41.6
0 5 3 194.78 8.5
0 -5 3 200.58 8.5
5 0 3 185.98 9.9
0 -5 -3 193.48 9.6
0 5 -3 185.48 8
5 0 -3 182.28 9.3
2 -5 -3 156.08 7.8
-5 2 3 162.68 10.9
5 2 3 162.38 12.7
2 -5 3 178.88 7.7
5 -2 -3 173.68 8.2
5 -2 3 188.58 9.5
2 5 3 171.28 9.4
-2 5 -3 180.68 7.9
-2 5 3 167.78 7.6
5 2 -3 173.08 16.6
2 5 -3 167.58 8.4
-5 2 -3 153.88 13.8
5 -4 3 137.39 10.1
4 5 -3 122.89 10
4 -5 3 116.79 8.9
-5 4 -3 153.88 13.6
-5 4 3 127.49 11.9
5 4 -3 140.09 50.99
5 -4 -3 107.99 10.6
-4 5 3 123.09 9.3
4 5 -3 65.39 34.7
5 4 3 100.49 21.5
5 4 -3 129.49 11.1
4 -5 -3 121.79 10.1
-4 5 -3 123.79 10
5 4 3 116.79 12.2
4 5 3 153.58 48.4
4 5 3 118.19 11.2
1 6 3 182.28 9.8
1 -6 3 187.48 8.8
1 -6 -3 182.58 9.6
6 -1 3 170.98 8.6
6 1 3 162.38 11.8
-6 1 3 144.49 23.2
1 6 -3 157.78 10.5
-6 1 -3 147.29 34.5
-1 -6 -3 195.38 11
6 -1 -3 166.98 9.4
-1 6 -3 168.68 8.6
6 1 -3 170.78 11.3
-1 6 3 186.78 8.7
6 -3 -3 122.79 9.9
3 -6 -3 119.99 9.5
3 -6 3 126.79 9.2
-6 3 -3 119.99 14.7
6 3 3 108.19 13.9
-3 6 -3 130.39 9.9
6 -3 3 121.79 10.5
6 3 3 96.39 12.8
-6 3 3 113.09 13.5
-3 6 3 108.19 9.4
3 6 3 136.89 10.7
3 6 -3 120.89 11.7
6 3 -3 100.69 19.5
0 7 3 94.09 9.6
0 7 -3 77.19 10.4
-7 0 3 77.59 41.8
7 0 3 67.99 11.8
0 -7 -3 66.09 13.2
7 0 -3 66.89 12.5
-7 0 -3 53.19 37.5
2 7 -3 59.39 12.6
7 -2 -3 56.89 13.6
2 7 3 60.49 12.1
-2 7 -3 51.09 11.9
-2 7 3 70.19 10.7
7 2 -3 45.6 15
-7 2 -3 33.8 38.3
7 2 3 48.3 14.6
2 -7 -3 67.89 13.1
-7 2 3 34 25.9
2 -7 3 64.29 10.6
7 -2 3 56.89 12.6
0 0 -4 22 25.2
0 0 4 224.08 36.4
-1 1 4 969.1 13.4
-1 1 -4 992.3 14.5
1 -1 -4 984.1 13.5
1 -1 4 1001.7 13.9
-1 -1 -4 945.81 23.9
1 1 4 860.71 19.9
1 1 -4 973.7 25.5
2 0 4 82.69 9.8
-2 0 4 86.99 15
0 -2 -4 86.39 8.9
2 0 -4 77.29 12.5
-2 0 -4 86.89 16.4
0 2 4 79.59 7
0 2 -4 87.69 7.9
0 -2 4 78.59 7.6
-2 2 -4 32.5 8
2 2 4 31.4 8.9
-2 2 4 32.5 6.6
2 -2 -4 28 6.6
2 2 -4 28 14
2 -2 4 28.1 6.1
1 -3 4 245.28 7.2
-3 -1 4 265.77 28
3 -1 4 227.38 7.9
1 3 4 222.68 7.7
1 -3 -4 251.77 8.6
-3 1 4 246.88 11.1
-3 1 -4 239.08 11.6
3 1 4 235.88 12.9
3 -1 -4 242.28 8.4
-1 3 4 243.68 7.1
-1 -3 -4 240.78 10.7
-1 3 -4 244.28 8.8
3 1 -4 223.98 22
1 3 -4 248.28 9.3
3 3 4 72.39 32.2
3 -3 4 67.59 6.7
3 3 4 59.39 9.2
-3 3 4 62.19 7.3
3 3 -4 59.39 20
-3 3 -4 64.89 9
3 -3 -4 65.69 8.4
0 -4 4 4.5 8
-4 0 -4 19.2 39.2
4 0 4 2 8.6
4 0 -4 13.8 10.4
0 -4 -4 7 7.1
0 4 4 4.9 6.3
-4 0 4 16.8 16.8
0 4 -4 3.2 6.6
2 4 -4 6 7.7
4 -2 4 4.9 6.4
-2 4 -4 5.3 6.9
4 2 4 2.9 12.8
4 2 -4 3.3 24.5
4 -2 -4 7.4 7.1
2 -4 4 8.4 6.5
2 -4 -4 6 6.9
-4 2 4 13.5 10
-4 2 -4 9.4 10.4
2 4 4 10.4 7.9
-2 4 4 6.8 6.6
4 4 -4 15 37.4
4 4 4 20.7 10
-4 4 -4 18.9 8.5
4 4 -4 28.3 9.2
4 4 4 12.6 42.4
-4 4 4 13.6 8.2
4 -4 -4 10.9 8.8
4 -4 4 12.7 8.6
5 -1 4 12.6 8.9
1 -5 4 25.5 7.1
-1 5 -4 11.1 7.2
1 5 4 15.7 8.1
5 1 -4 23.6 10.8
1 5 -4 17.8 7.5
5 1 4 17.7 10.1
-1 -5 -4 11.2 8.8
1 -5 -4 21.4 8.8
-5 1 4 19.5 13.3
5 -1 -4 30.9 10.2
-1 5 4 16.4 8.1
-5 -1 4 -4.2 28.2
-5 1 -4 10.5 20.9
-5 3 4 4.4 10
5 3 4 2.2 14.6
5 -3 -4 6.1 8.4
5 3 -4 36.6 31.7
-5 3 -4 -4 10.6
3 -5 -4 7.8 9.3
-3 5 4 12.6 7.9
3 5 4 -0.9 9.3
3 -5 4 4.8 9.1
5 -3 4 8.8 8.9
3 5 -4 1.8 8.9
5 3 4 14.1 11.1
-3 5 -4 4.7 8.6
5 5 -4 8.6 11.3
-5 5 4 8.7 11.4
5 -5 4 14.7 11.1
-5 5 -4 0.1 13.9
5 -5 -4 -2.7 10.5
5 5 4 0.4 32.7
5 5 -4 10.5 37.3
5 5 4 9.3 13.1
0 6 4 25.2 7.9
0 6 -4 29.9 8.2
6 0 4 26.4 9.8
0 -6 -4 29.8 9.5
6 0 -4 22.8 9.6
-6 0 4 56.39 40.4
-6 0 -4 43 43.8
-6 2 4 26.1 14.8
6 2 4 16.1 12.5
-6 2 -4 39.5 21
-2 6 -4 33 8.7
2 6 -4 9.4 9.5
6 2 -4 17.3 13.9
6 -2 4 24.7 10.1
2 -6 -4 36.8 10.6
2 -6 4 31.7 8.4
-2 6 4 32.7 8.5
2 6 4 30.8 9.7
6 -2 -4 43 10.7
6 4 -4 25.1 34
6 4 4 23.1 17.2
-6 4 4 21.8 13.2
6 -4 -4 18.9 10.7
4 6 -4 13.4 12.9
4 6 4 16 12.6
-6 4 -4 41.3 17
6 4 4 26.7 13.6
-4 6 4 28.7 10.6
4 6 -4 -1 35.4
6 4 -4 16.8 13.4
-4 6 -4 34.5 13.3
4 -6 4 29.4 10.2
4 6 4 33.2 50.59
4 -6 -4 26.7 11.9
6 -4 4 23.7 10.1
1 7 4 11 11
1 7 -4 0.7 10.3
-7 1 4 2.7 32.3
1 -7 4 -2.7 9.3
-7 1 -4 12.4 42.4
7 -1 4 11.1 12.1
-1 7 -4 1.2 10.5
7 -1 -4 -3.4 11.2
-1 7 4 -0.9 11.4
1 -7 -4 -3.3 13.3
7 1 4 3.8 12.1
7 1 -4 0.6 12.2
-7 3 -4 5.1 31.8
7 -3 -4 20.2 14.6
3 -7 -4 0.5 12.2
3 -7 4 2 11.7
7 -3 4 7.9 12.5
-3 7 -4 -5.9 12.5
-7 3 4 5.2 19.3
0 1 5 3555.24 26.4
-1 0 -5 3593.34 39.5
0 -1 -5 5.8 8.1
1 0 -5 3900.41 42.2
-1 0 5 3699.63 38.2
-1 2 5 2566.84 16.1
2 1 5 2392.86 38
-2 1 5 2612.44 18
1 2 5 2529.95 20.1
2 1 5 2444.26 41.9
1 -2 5 2712.03 16.3
2 -1 -5 2555.44 17.8
1 -2 -5 2641.84 17.3
-1 -2 -5 2537.65 22.7
-2 1 -5 2618.74 20.3
2 1 -5 2714.33 35
2 -1 5 2557.04 18.7
-1 2 -5 2680.13 16.8
-3 0 5 1866.11 23
3 0 5 1694.03 18.7
-3 0 -5 1920.21 39
3 0 -5 1789.02 19.3
0 -3 -5 1715.73 13.6
0 3 -5 1782.92 14
0 3 5 1702.93 12.6
3 2 5 1291.37 17.2
3 -2 5 1381.56 12.6
-2 3 -5 1419.96 13.1
-3 2 5 1310.87 12.2
-2 3 5 1344.57 11.1
2 3 5 1305.37 14.6
2 3 -5 1391.76 13.6
2 -3 5 1354.96 11.1
3 -2 -5 1289.97 11.8
-3 2 -5 1372.56 14
2 -3 -5 1351.06 11.5
3 2 -5 1326.47 26.1
3 2 5 1321.57 29.1
4 -1 5 1084.79 12.3
1 4 5 1100.29 11.5
4 1 -5 1069.79 20.9
-4 1 -5 1099.19 19.3
-4 -1 5 1106.19 25.9
-1 -4 -5 1067.49 13.6
1 4 -5 1053.89 11
-1 4 -5 1122.19 10.7
4 -1 -5 1070.29 12.6
4 1 5 1036.3 15.7
1 -4 -5 1104.49 10.9
-1 4 5 1025.4 9.8
1 -4 5 1160.58 10.5
-4 1 5 1049.49 14.2
4 3 5 603.24 21.5
4 -3 -5 591.54 9.6
3 -4 5 637.34 9.1
-3 4 -5 671.03 11.2
-4 3 5 626.54 10.2
3 -4 -5 624.34 9.4
3 4 -5 557.74 17.6
-3 4 5 613.84 9.3
4 3 -5 585.54 25.7
4 3 5 627.14 13.1
-4 3 -5 615.14 12.3
3 4 5 609.44 11.4
3 4 -5 606.34 12.9
4 -3 5 658.93 10.2
-5 0 5 509.75 30.6
0 -5 -5 566.44 11.4
5 0 -5 528.15 11.9
0 5 -5 542.65 9.3
5 0 5 545.85 12.1
0 5 5 570.14 10
-5 0 -5 522.05 35.1
-5 2 5 420.16 12
5 2 -5 406.86 22.6
5 -2 -5 421.46 11.5
2 -5 5 460.25 8.9
-2 5 -5 450.15 9.4
2 5 5 449.36 10.2
-5 2 -5 442.76 16.1
2 5 -5 429.76 11.3
5 2 5 428.56 13.7
5 -2 5 433.96 10.6
-2 5 5 419.06 8.9
2 -5 -5 467.25 9.6
5 4 5 205.68 21
5 -4 5 231.68 9.4
5 4 5 226.58 13.8
-5 4 5 232.48 10.6
5 4 -5 147.59 12.7
4 -5 -5 226.88 11
-4 5 5 224.68 9.9
5 -4 -5 232.18 9.6
-5 4 -5 248.68 12.2
5 4 -5 201.38 35
4 5 5 230.68 11.1
4 5 5 174.78 36.5
4 -5 5 249.68 9.3
4 5 -5 226.28 11.2
4 5 -5 197.98 28.3
-4 5 -5 227.08 10.8
-6 1 5 282.27 23.6
1 -6 5 339.87 9.5
1 6 5 360.96 11.1
6 -1 5 328.37 11.2
-1 -6 -5 350.16 15.2
-6 1 -5 356.66 48
6 1 -5 295.17 14.5
6 1 5 337.97 12.7
1 -6 -5 365.36 10.7
-1 6 5 345.27 9.4
6 -1 -5 323.07 10.8
-1 6 -5 341.57 9.6
1 6 -5 337.37 10.1
6 -3 -5 169.98 12.4
-6 3 5 191.68 17
-6 3 -5 199.88 19.4
6 3 -5 188.78 21.9
3 -6 5 221.68 9.9
3 -6 -5 225.88 10.3
6 3 5 193.28 16
6 -3 5 230.88 11.2
3 6 5 211.58 11.9
6 3 5 171.38 15.6
-3 6 5 209.68 11.2
3 6 -5 197.18 10.9
-3 6 -5 216.28 10.8
0 -7 -5 126.89 12.7
0 7 -5 124.39 10.6
7 0 5 114.69 13.2
7 0 -5 99.79 15
0 7 5 126.79 11.3
-7 0 5 99.99 36
-7 0 -5 96.99 32.9
-7 2 5 96.59 22.2
-2 7 -5 93.29 11.1
2 7 5 92.29 12
7 2 -5 94.09 18.2
7 2 5 86.69 16.4
2 -7 -5 119.39 12.5
7 -2 5 96.59 11.7
-2 7 5 106.79 10.7
2 7 -5 116.89 13
2 -7 5 102.49 12.4
-7 2 -5 95.49 53.59
7 -2 -5 93.19 13.2
0 0 -6 4584.44 47
0 0 6 5611.24 51.79
1 1 6 2668.13 38.8
-1 1 6 2858.91 21.5
-1 1 -6 2773.22 21.4
1 -1 -6 2580.04 20.3
1 1 -6 2632.94 30.5
-1 -1 -6 2515.25 34.9
1 -1 6 2710.53 20.3
-2 0 6 3810.82 31.1
0 -2 -6 3591.14 21
2 0 6 3739.93 35.3
0 2 -6 4046.9 21.4
-2 0 -6 3598.94 42
0 2 6 3579.94 20.1
2 0 -6 3923.41 31
-2 2 6 2544.65 15.4
-2 2 -6 2643.74 16.7
2 -2 -6 2584.44 15.7
2 -2 6 2810.62 16.5
2 2 6 2464.45 24.3
2 2 -6 2467.65 25.5
3 1 -6 1484.15 32.1
1 -3 6 1441.66 11.7
3 -1 6 1394.16 14.9
1 -3 -6 1362.76 11.8
3 -1 -6 1384.06 14.6
-3 1 6 1419.36 15.6
1 3 -6 1396.86 13
-3 1 -6 1355.76 17.3
-1 3 -6 1357.36 11.9
-1 3 6 1279.27 10.9
1 3 6 1353.96 13.6
-1 -3 -6 25.7 8.1
-3 -1 6 1395.76 23.3
3 1 6 1306.27 23.9
3 -3 -6 724.53 11.1
-3 3 -6 806.32 12
3 -3 6 760.22 9.6
-3 3 6 743.13 11.1
3 3 6 733.33 13.3
3 3 6 729.23 32.1
3 3 -6 692.33 22.6
0 -4 -6 1414.36 14.2
0 4 6 1332.37 11.3
4 0 6 1409.96 16.6
4 0 -6 1372.66 16.6
-4 0 6 1452.05 25.7
0 4 -6 1415.16 12.2
-4 0 -6 1402.86 36.4
4 -2 -6 1003.1 12.4
4 2 -6 956.2 25.5
2 -4 6 1064.49 10.2
-4 2 6 988.1 12.4
2 4 6 1040.4 12
-2 4 -6 1078.19 11
2 4 -6 1070.49 12
4 2 6 1001.9 19.6
2 -4 -6 1073.19 11.8
4 2 6 1049.59 18
-4 2 -6 1078.59 14.8
-2 4 6 989.6 10.1
4 -2 6 1060.99 11.7
4 -4 -6 477.25 9.9
-4 4 6 475.05 10.1
4 -4 6 505.65 10.2
4 4 -6 502.45 14.1
4 4 6 455.55 12.3
-4 4 -6 482.15 10.9
4 4 6 400.56 37.5
4 4 -6 444.26 34.1
1 5 6 456.35 10.2
1 -5 -6 440.86 9.7
1 5 -6 438.36 10.5
1 -5 6 420.16 8.7
5 1 -6 398.66 17.1
-5 1 6 425.86 18.3
-5 -1 6 411.16 25
-1 5 -6 435.06 9.1
5 -1 -6 402.56 11.9
5 -1 6 435.16 10.7
-1 5 6 446.86 9.7
-1 -5 -6 470.35 12.9
-5 1 -6 449.56 27.7
5 1 6 415.76 12.7
5 -3 6 279.77 10.1
3 -5 6 269.47 9.3
3 5 -6 259.87 11
5 -3 -6 232.98 9.7
5 3 -6 229.48 34
-5 3 6 272.47 12.3
5 3 6 248.08 16.3
3 5 6 275.67 10.6
-5 3 -6 263.57 15.1
5 3 6 263.47 13.8
-3 5 6 277.07 10.1
3 -5 -6 270.37 10.6
-3 5 -6 287.17 10.4
-5 5 6 96.69 13.2
5 -5 -6 93.59 10.9
5 5 6 97.09 13.3
5 5 -6 87.29 15.2
5 -5 6 134.19 11.7
-5 5 -6 112.29 16.4
5 5 -6 94.89 33.5
5 5 6 77.19 26.2
0 -6 -6 394.56 12.6
6 0 6 374.16 12.6
6 0 -6 327.07 13.8
0 6 -6 364.36 10
-6 0 -6 338.77 37.4
0 6 6 397.66 9.3
-6 0 6 339.67 30.3
-6 2 6 264.27 18
2 6 6 309.57 10.9
-6 2 -6 283.27 27.4
6 2 6 274.17 16.1
6 -2 -6 263.57 12.4
6 2 -6 259.57 20.6
6 2 6 290.47 15.5
2 -6 6 282.67 10.8
2 -6 -6 340.57 12.4
-2 6 6 303.37 11.7
6 -2 6 321.47 11.5
-2 6 -6 309.87 11.7
2 6 -6 286.57 11.1
4 -6 6 173.58 10.8
6 4 -6 105.49 40
-6 4 6 131.19 14.6
6 -4 6 140.49 12.5
4 6 6 105.29 36.5
6 -4 -6 151.78 13.6
4 6 6 132.19 13.4
6 4 6 119.09 19.1
-4 6 6 141.89 12.6
4 6 -6 135.39 14
-6 4 -6 136.49 17.3
-4 6 -6 156.68 13
4 -6 -6 133.69 11.4
6 4 -6 110.79 15.9
6 4 6 128.29 17.2
4 6 -6 63.09 29.4
7 1 6 92.79 14.9
-1 7 -6 125.49 11
-1 -7 -6 92.09 15.3
1 -7 -6 109.09 12.8
7 1 -6 82.19 16.1
7 -1 6 98.89 12.6
1 7 -6 100.79 11.6
1 7 6 93.89 9.9
-1 7 6 120.59 10.5
7 -1 -6 95.09 12
-7 1 6 81.09 36.9
-7 1 -6 75.49 40.5
1 0 -7 115.29 20.5
0 1 7 103.89 11
0 -1 -7 -7.1 8.7
-1 0 7 111.29 22
-1 0 -7 100.39 26.5
-1 0 -7 102.29 14.3
-2 1 7 118.19 10.5
-1 2 -7 114.49 9.3
-1 -2 -7 107.79 11.5
-2 1 -7 122.19 10.8
2 -1 7 108.69 8.7
-1 2 7 116.29 8.3
2 -1 -7 100.09 9.6
1 -2 -7 118.99 9
1 2 7 108.29 10.1
1 -2 7 39.6 6.5
2 1 -7 111.09 15.4
3 0 7 89.39 11.3
3 0 -7 87.89 12.9
0 -3 -7 76.79 7.6
0 3 -7 85.19 9
0 3 7 85.19 6.8
-3 0 -7 92.39 34.9
-3 0 7 77.19 15.5
3 2 -7 85.49 15.4
2 -3 -7 88.19 7
2 -3 7 85.99 7
3 2 7 89.79 18
-3 2 7 81.19 8
2 3 7 77.99 8
3 -2 7 87.99 8.1
-2 3 -7 88.69 7.8
-2 3 7 91.79 7.8
3 2 7 80.99 12.7
2 3 -7 75.49 9.6
3 -2 -7 94.69 9.5
-3 2 -7 90.99 9.6
-1 -4 -7 99.59 10
-4 1 7 94.59 11.4
1 -4 7 101.79 7.2
4 1 -7 95.89 18.4
4 1 7 95.29 13.3
1 4 -7 98.09 8.5
-4 1 -7 117.49 16.4
4 -1 -7 106.69 9.3
1 -4 -7 100.59 8.1
-1 4 7 96.69 8.7
-1 4 -7 102.09 7.8
-4 -1 7 92.19 16.9
4 -1 7 106.39 9.3
1 4 7 102.39 8.2
4 3 7 68.19 18.5
3 -4 -7 70.79 7.9
-4 3 7 83.49 9.9
4 -3 7 81.49 7.6
3 4 7 73.19 8.9
3 4 -7 85.39 10.4
3 4 -7 75.39 20.1
-3 4 -7 73.39 8.7
-3 4 7 58.69 7.6
-4 3 -7 71.89 9.7
4 3 7 70.69 11.9
3 -4 7 81.99 8.6
4 3 -7 67.19 18.3
4 -3 -7 73.99 8.2
-5 0 7 53.39 27.5
0 5 7 63.09 8.6
0 5 -7 58.09 8.2
5 0 -7 57.39 11.4
5 0 7 55.99 10.1
0 -5 -7 52.39 10.5
-5 0 -7 65.09 32.1
5 2 7 51.69 14.1
2 5 7 52.89 8.7
-5 2 7 62.59 11.2
5 2 -7 68.29 24.3
-2 5 -7 54.89 9.1
-5 2 -7 54.89 17
5 2 7 54.49 14.7
-2 5 7 55.69 8
2 5 -7 55.59 9
2 -5 -7 61.19 9
5 -2 -7 51.89 9
5 -2 7 52.49 9.4
2 -5 7 59.09 8
5 4 -7 32.3 22.5
4 -5 7 45 9
5 4 7 40.2 18.1
5 -4 -7 29.4 11.4
-5 4 7 43.9 12.2
4 5 7 49.99 12
-4 5 7 37.9 9.6
4 5 -7 37.3 13.6
5 -4 7 49.7 10
4 -5 -7 37.3 9.8
5 4 7 40.8 13.3
-5 4 -7 34 12.5
4 5 -7 48.7 32.2
4 5 7 27.6 35
-4 5 -7 45.2 11.1
5 4 -7 29.4 14
-6 1 -7 54.09 29.9
6 1 7 73.89 12.9
1 -6 -7 90.09 10.3
-1 6 -7 69.99 9.2
-1 -6 -7 64.59 14.5
6 -1 -7 54.99 12.8
6 -1 7 71.89 11.1
-1 6 7 70.89 10
1 6 -7 57.89 9.5
6 1 -7 64.29 14.6
1 6 7 64.19 10
-6 1 7 88.19 25.2
-3 6 -7 50.39 13.6
3 6 7 44 11.5
6 3 -7 53.89 36.5
-6 3 7 57.49 16.1
6 -3 7 50.39 11.2
-6 3 -7 64.09 21.8
6 -3 -7 62.39 11.4
3 6 -7 39.1 13.1
6 3 7 49.5 17.7
-3 6 7 56.69 11.8
6 3 7 44.6 18.2
3 -6 -7 32.1 11.2
3 -6 7 46.6 11.3
0 7 -7 18.4 12.3
7 0 7 22.6 14.2
7 0 -7 8.2 15
0 -7 -7 36.2 13.7
0 7 7 31 10.1
-7 0 7 78.49 29.2
-7 2 -7 17.6 38.2
-7 2 7 0 23.6
-2 7 -7 16 14
7 2 7 25.4 20.4
7 2 -7 10.1 19.2
2 -7 -7 21 12.9
7 2 7 25.3 20.8
2 -7 7 18.8 11.4
-2 7 7 27.5 12.3
2 7 -7 17.7 12.3
7 -2 7 29.5 13
7 -2 -7 34.1 12.8
2 7 7 29.3 12.9
0 0 -8 1855.81 27.3
-1 1 8 730.23 14.3
1 -1 -8 687.33 14.2
-1 -1 -8 639.44 18.7
1 1 -8 714.33 26.4
1 1 8 689.43 37.5
-1 1 -8 715.33 14.2
0 -2 -8 1306.67 15
2 0 -8 1412.16 26
0 2 -8 1417.96 16.2
0 2 8 1317.77 14.7
-2 0 8 1223.08 22.5
-2 0 -8 1275.97 27.5
2 -2 8 1056.19 12.4
-2 2 8 997.2 11.2
-2 2 -8 1013.7 12.4
2 2 8 943.11 21.9
2 -2 -8 1049.3 12.1
2 2 -8 971 20.8
-1 3 -8 472.65 9.7
-3 1 8 446.66 11.7
1 3 -8 431.66 10.8
1 -3 -8 442.96 10.4
3 1 -8 439.96 16.4
-1 -3 -8 422.56 12.3
3 -1 -8 461.35 11.8
-1 3 8 440.86 8.4
1 -3 8 344.37 8.3
-3 1 -8 440.36 13.1
1 3 8 434.66 10.3
3 -1 8 438.36 10.4
-3 3 -8 320.87 11
-3 3 8 309.47 8.9
3 3 8 291.07 13.6
3 3 8 269.57 31.7
3 3 -8 279.37 21.2
3 -3 8 310.67 7.9
3 -3 -8 299.57 10.9
-4 0 -8 630.64 31.2
4 0 8 636.34 15.9
0 4 -8 658.23 10.4
4 0 -8 643.74 15.3
0 -4 -8 609.74 12.1
0 4 8 599.64 9.2
-4 0 8 626.74 21
4 2 -8 467.95 17.8
-4 2 8 479.35 10.9
2 -4 8 512.25 10
4 -2 8 530.45 10.7
2 -4 -8 506.65 9.8
-2 4 -8 499.35 10
-2 4 8 490.75 10
-4 2 -8 509.35 14.7
4 -2 -8 488.15 10.4
2 4 -8 471.25 13
2 4 8 474.25 10.9
4 4 8 263.37 13.2
4 4 -8 267.67 14.5
-4 4 8 261.67 11
4 -4 -8 255.57 11.1
4 4 -8 238.48 24.6
4 -4 8 284.57 9.2
-4 4 -8 282.27 13.7
4 4 8 236.48 29.6
-5 1 8 187.68 15.8
-5 1 -8 220.68 37.9
5 1 -8 201.88 18.3
1 5 -8 200.68 9.5
-1 -5 -8 195.38 11.4
1 5 8 208.28 9.3
5 -1 -8 196.08 12.8
-1 5 -8 207.58 9.2
-1 5 8 212.68 8
5 1 8 202.68 17
1 -5 -8 203.78 9.1
5 -1 8 210.38 10.7
-3 5 -8 156.88 12.1
5 3 -8 111.09 20.5
3 5 8 147.39 11.8
3 5 -8 141.39 20.1
-5 3 8 128.09 10.7
5 -3 8 152.18 10.2
-3 5 8 148.49 9.2
5 3 8 136.39 20
3 -5 -8 150.98 9.8
-5 3 -8 154.68 16.2
3 -5 8 152.98 9
5 3 8 137.39 21.8
3 5 -8 150.48 11.4
5 -3 -8 149.09 9.9
5 5 8 50.29 26.5
5 5 8 59.89 16.6
-5 5 8 68.09 11.7
5 -5 -8 74.89 13.3
-5 5 -8 81.99 17.7
5 5 -8 62.29 14.8
5 5 -8 58.09 28.1
5 -5 8 76.09 12.2
0 -6 -8 246.58 11.9
6 0 8 232.28 14.6
6 0 -8 220.88 14
0 6 -8 227.98 11.5
0 6 8 247.58 10.6
-6 0 -8 191.38 30.5
-6 0 8 195.58 29.6
-6 2 8 197.18 16.8
6 -2 8 181.78 11.1
2 6 -8 174.48 11.4
-2 6 -8 182.28 11.2
2 -6 8 184.98 10.4
-6 2 -8 172.08 37.5
6 2 -8 176.98 22.8
-2 6 8 199.08 11.1
2 6 8 185.18 11
6 -2 -8 165.78 13.9
2 -6 -8 210.88 11.4
4 6 8 91.49 14.4
6 4 -8 127.99 33.2
-6 4 8 86.39 15.4
4 6 -8 35.7 37.9
6 -4 -8 81.19 13.3
-4 6 8 103.09 13.6
-6 4 -8 79.29 23.8
6 -4 8 94.19 12.4
4 6 -8 70.99 16
4 -6 -8 115.99 14.5
4 -6 8 102.59 11.6
4 6 8 94.79 35.9
-4 6 -8 113.79 14.2
7 -1 8 60.59 14.4
-1 -7 -8 49.9 17.5
-1 7 -8 67.49 13.4
7 1 -8 68.79 16.4
-1 7 8 74.59 10.5
1 7 -8 66.69 12.2
7 -1 -8 70.89 13.7
1 7 8 57.29 10.6
1 -7 -8 65.39 13.3
-7 1 8 49.5 32.6
-7 1 -8 69.89 42.2
7 1 8 61.99 19.9
0 1 9 161.68 14.4
-1 0 9 179.58 20.4
1 0 -9 177.58 14.6
0 -1 -9 -4.6 12
0 1 -9 168.88 13.1
-1 0 -9 170.68 22.7
-2 1 9 71.09 11.2
-1 2 9 73.69 7.6
1 2 9 71.69 10.6
2 -1 -9 77.59 11
-1 2 -9 81.69 8.4
1 -2 -9 74.19 10.2
-2 1 -9 74.19 12.1
-1 -2 -9 72.29 11.6
2 1 -9 73.19 12.6
-3 0 -9 44.2 33.8
3 0 -9 31.3 17.6
0 -3 -9 43.5 7.9
0 3 9 37.8 8
-3 0 9 43.1 17.7
0 3 -9 41.5 9.8
2 -3 -9 23.1 7.9
-3 2 -9 19.3 10
3 -2 9 13.8 8
-2 3 9 8.5 7.1
-3 2 9 24.6 9.7
-2 3 -9 18.4 8.3
3 -2 -9 21.6 8.9
2 3 9 14.1 9.6
2 3 -9 7.2 13
2 -3 9 12.7 8.3
3 2 -9 28.3 17.3
-4 1 9 12.8 11.6
4 1 -9 19.6 17.9
-4 1 -9 12.3 19.8
4 -1 -9 10.4 10.5
1 -4 -9 5.5 8.3
-1 4 9 8.6 7.2
4 -1 9 1.4 9.3
1 4 9 4 8
-1 -4 -9 -4.5 10.5
-1 4 -9 14.3 8.1
1 4 -9 11.9 8.8
-3 4 -9 2.9 10.8
3 -4 -9 12.8 8.7
-4 3 9 10.5 8.8
-3 4 9 5.8 8.2
4 3 -9 -4.6 19.2
3 4 -9 7.8 11.8
3 -4 9 8.2 8.6
-4 3 -9 4.8 12.2
3 4 -9 3.3 17.2
4 -3 9 8.6 9.4
4 -3 -9 5.2 10.3
3 4 9 12.4 11
0 5 -9 0.3 8.5
-5 0 -9 9.5 32.7
0 -5 -9 0.6 11.7
5 0 9 3.7 12.3
5 0 -9 4.7 14
0 5 9 2.5 7.6
-5 0 9 17.1 26.8
-5 2 9 22.4 13.6
5 2 -9 20.2 20.6
-2 5 -9 -3 12
-5 2 -9 7.8 20.4
5 -2 9 8.4 9.4
2 5 9 7.3 9.4
-2 5 9 5.4 9.6
2 -5 -9 7.6 11.9
2 5 -9 11.7 10
5 -2 -9 8.7 10
2 -5 9 1.1 8.4
5 -4 -9 13.9 10.7
-5 4 9 13.8 11
5 4 -9 -10.2 19
-4 5 9 15.7 10
4 -5 -9 19.6 12.2
4 5 -9 11.1 13.7
4 -5 9 7 11
-5 4 -9 25.7 14.5
-4 5 -9 14 14.4
4 5 -9 13.8 33.2
4 5 9 22.3 46
5 -4 9 13.5 10.6
4 5 9 12.5 14.2
1 6 -9 36.3 10.3
-6 1 -9 24.7 27
-1 -6 -9 23.7 17.5
1 -6 -9 25.3 11
6 -1 9 21.5 12
6 1 -9 37.6 18.1
-1 6 -9 3.6 10.3
-1 6 9 24.8 9
6 -1 -9 17.5 13
1 6 9 20.7 10.8
-6 1 9 14.6 22.4
-3 6 -9 3 14.2
-6 3 9 28.1 15
6 3 -9 33.6 33.8
-6 3 -9 13.3 30
-3 6 9 25.7 10.5
3 6 -9 13 14.9
3 -6 -9 29.2 12.1
6 -3 9 16.5 12.1
3 -6 9 40.2 10.5
3 6 -9 14.2 19.4
3 6 9 23.5 13.1
6 -3 -9 26.1 12.3
7 0 9 12 17.6
0 -7 -9 23.8 18.6
0 7 -9 -0.9 11.8
7 0 -9 12.1 16
0 7 9 11.2 11.6
-7 0 9 -1.8 24.2
0 0 -10 31.9 14.7
-1 1 10 29.6 12.1
-1 1 -10 26.8 12.2
1 -1 -10 33.5 13.2
-1 -1 -10 29.6 15.5
1 1 -10 47.2 18.2
1 1 10 28.6 19.6
2 0 -10 23.5 13.5
0 2 10 34.4 9.9
-2 0 -10 37.6 14.8
0 2 -10 43.6 10.8
-2 0 10 45.5 17.8
-2 0 -10 39.7 30.8
0 -2 -10 -8.2 9.6
-2 2 10 46.8 8
2 2 -10 64.49 21.9
-2 2 -10 50.09 10.2
2 -2 -10 47.5 10.9
-3 1 10 9.2 12.7
1 -3 -10 8.9 8.4
3 1 -10 23.4 12.3
-1 -3 -10 9.1 11.9
-1 3 -10 2.8 8.7
3 -1 10 8.8 8.3
-3 1 -10 5.4 12.4
-1 3 10 12.3 8.6
3 -1 -10 13.3 12
1 3 -10 6 10.5
1 3 10 6.5 9.5
3 3 -10 25.9 19.3
3 -3 10 12.2 8.7
-3 3 -10 9.6 11.2
-3 3 10 10 8.2
3 -3 -10 7.1 9.1
-4 0 10 57.69 20.3
4 0 -10 47.8 19.7
0 4 -10 54.09 10.8
0 4 10 54.79 7.3
0 -4 -10 61.39 8.9
-4 0 -10 59.89 51.49
4 2 -10 69.69 13.1
-4 2 10 56.49 10.2
4 -2 10 54.89 9.3
2 -4 -10 60.09 10.6
-2 4 10 51.99 9.1
-2 4 -10 54.69 9.4
2 -4 10 59.09 7.7
-4 2 -10 59.99 14.2
4 -2 -10 63.39 10.4
2 4 10 51.99 8.8
2 4 -10 60.09 11.4
4 -4 -10 31 11.7
4 4 10 43.4 28.1
-4 4 10 49.7 9.5
4 -4 10 55.49 10
4 4 10 45.1 19
-4 4 -10 44.6 14.1
4 4 -10 46.6 17.5
4 4 -10 65.69 20
-1 -5 -10 33.9 14.3
-5 1 -10 18.1 26.7
5 1 -10 36.3 27
1 5 -10 15.3 10
5 -1 10 14.1 10.9
-1 5 10 13.5 9
5 -1 -10 23.8 12.2
-1 5 -10 22.9 9.8
1 5 10 16.2 9
1 -5 -10 18.9 10.9
-5 1 10 25.8 16.1
5 3 -10 15.9 16.9
-3 5 -10 17.3 12.6
-5 3 10 13 11.4
3 5 -10 20.4 13.7
-3 5 10 16.6 9.6
3 -5 -10 19.3 12.4
3 5 10 13.4 11.7
-5 3 -10 15.9 18.9
5 -3 -10 25.9 12.3
3 -5 10 19.3 9
3 5 -10 18.5 17.9
5 -3 10 24.6 10.9
5 5 -10 33.8 20.7
-5 5 10 32.8 14.1
5 -5 -10 13 12.9
-5 5 -10 7.2 19.5
5 -5 10 19.5 12.2
5 5 -10 2.5 23.1
6 0 -10 46.1 17.2
6 0 10 52.89 18.3
0 6 10 50.99 9.2
0 -6 -10 71.39 13
-6 0 10 41 22.1
0 6 -10 41.4 12.5
-6 2 10 42.4 17.9
-6 2 -10 62.29 30.9
-2 6 -10 45.5 11.9
6 2 -10 66.29 29.9
2 6 -10 45.5 12.4
6 -2 -10 50.29 13.2
-2 6 10 59.99 11.2
6 -2 10 43.7 11.3
2 6 10 44.3 11.5
2 -6 -10 57.29 11.9
-1 -7 -10 -0.7 25
-1 7 -10 18 14
7 1 -10 11.6 21.4
-1 7 10 13.7 13
1 7 10 13.6 12.3
7 -1 -10 14.5 17.5
1 -7 -10 20 18.7
1 7 -10 3.5 13.1
-7 1 10 22 31.9
-7 1 -10 4.6 52.59
7 -1 10 13.1 16.8
-1 0 -11 2520.25 31
-1 0 11 2479.35 25.5
1 0 -11 2698.73 23.8
0 1 -11 2460.85 28.8
0 -1 -11 119.39 18.5
0 1 11 2549.94 31.8
-2 1 11 1914.31 18.6
2 1 -11 1845.72 18.6
1 2 11 1796.62 23.2
-1 2 11 1850.91 15.4
2 -1 -11 1992.1 23
-1 -2 -11 1705.73 21.8
-1 2 -11 1830.32 17.5
1 -2 -11 1929.51 18.6
-2 1 -11 1920.11 21.5
1 2 -11 1704.83 19.6
0 3 -11 1345.47 17
3 0 -11 1337.47 22.7
0 3 11 1335.47 14.1
0 -3 -11 1282.97 15.1
-3 0 11 1306.37 26.4
-3 2 -11 1022.9 15.7
-3 2 11 978.3 12.9
-2 3 11 981.7 11.7
2 3 11 972.7 19.4
3 -2 11 938.91 12.5
-2 3 -11 989.7 12.9
3 -2 -11 1002.1 14.6
2 3 -11 948.41 20
2 -3 -11 1039.8 15.2
3 2 -11 962.7 18.4
1 4 -11 807.02 13.8
4 1 -11 779.02 16.5
1 -4 -11 785.52 12.4
-1 4 11 787.42 11.8
-4 1 -11 785.32 30.5
4 -1 -11 793.22 16.7
-1 -4 -11 784.02 16.8
1 4 11 763.22 12.5
4 -1 11 765.92 15
-4 1 11 761.92 16.6
-1 4 -11 775.42 14.5
3 4 -11 459.85 17.2
3 -4 11 437.86 9.7
3 -4 -11 472.85 12.2
-4 3 11 441.66 11.4
-3 4 -11 461.45 12.4
4 -3 -11 433.46 12.2
-3 4 11 446.26 10.7
3 4 11 441.56 16.7
-4 3 -11 436.16 13.7
3 4 -11 380.46 21
4 -3 11 462.55 9.7
4 3 -11 423.06 16.2
0 5 -11 412.56 13.2
0 -5 -11 425.56 14.5
5 0 -11 378.66 22.6
0 5 11 422.96 10.8
-5 0 11 361.06 20.1
-5 2 11 301.47 14.4
5 2 -11 292.67 17.1
5 -2 11 323.97 11.9
-2 5 11 331.67 10.1
-2 5 -11 320.27 13.8
-5 2 -11 346.37 33
2 -5 -11 345.07 13.6
2 5 11 336.97 12.7
5 -2 -11 299.17 13.1
2 5 -11 328.27 15.1
4 5 11 119.29 37.7
5 4 -11 153.08 18.6
-4 5 -11 157.08 15.1
5 -4 -11 143.49 14.6
-5 4 11 177.38 12.6
-4 5 11 155.28 13.5
4 -5 -11 154.08 13.8
4 5 11 153.48 19.4
-5 4 -11 167.38 22.7
4 -5 11 154.98 12.2
5 -4 11 169.08 12
4 5 -11 158.28 18.5
4 5 -11 152.98 31.2
-6 1 -11 209.18 30.1
1 6 -11 221.38 14.6
1 -6 -11 257.47 13.5
6 1 -11 190.98 25.6
-1 6 11 238.08 10.2
-1 6 -11 224.88 13.1
6 -1 -11 220.08 16.4
1 6 11 238.78 12.3
6 -1 11 239.08 15.5
-1 -6 -11 254.87 21.4
-6 1 11 214.48 25.1
-6 3 11 98.79 18.3
-3 6 -11 150.08 16.6
6 3 -11 121.89 21.7
-6 3 -11 125.49 48.5
-3 6 11 132.19 11.6
6 -3 11 140.39 13.6
3 6 -11 131.19 16.2
3 6 11 138.59 15.3
3 -6 -11 150.28 15.9
3 6 -11 130.39 23
6 -3 -11 139.69 15.9
0 0 -12 675.33 16.9
1 -1 -12 278.57 23.3
-1 -1 -12 218.58 18.9
-1 1 -12 134.19 14.9
-1 1 -12 214.08 17.1
1 1 -12 240.08 16.6
-1 1 12 245.48 16.1
-2 0 -12 474.75 23.6
0 2 12 495.75 13.8
2 0 -12 470.35 13.4
-2 0 -12 470.55 20.7
-2 0 12 434.56 16.1
0 2 -12 403.66 16.6
0 -2 -12 248.08 14
-2 2 12 355.66 10.7
2 -2 -12 354.56 13.6
-2 2 -12 382.06 12.8
2 2 -12 336.47 16.5
1 -3 -12 140.09 11.6
3 1 -12 133.59 11.6
-1 3 12 144.39 9.5
1 3 12 142.99 12.4
-1 3 -12 147.49 12.9
3 -1 -12 136.59 16.6
1 3 -12 133.89 14.8
-1 -3 -12 135.89 13.4
-3 1 12 143.29 13.1
-3 1 -12 138.69 17
-3 3 12 93.09 11.3
-3 3 -12 93.99 13.1
3 -3 -12 82.49 13.3
3 3 -12 101.79 19.1
4 0 -12 247.78 20
0 4 12 226.28 10.4
0 4 -12 204.48 11.8
0 -4 -12 209.68 13.6
-4 0 12 187.48 20
-4 2 12 163.68 11.5
4 2 -12 154.88 12.6
2 -4 -12 182.88 12.2
-2 4 12 164.98 8.6
2 4 -12 185.08 15.1
2 4 12 163.68 12.6
-2 4 -12 174.08 11.2
4 -2 12 116.69 8.6
-2 -4 -12 199.68 38.1
4 -2 -12 174.58 12.8
-4 2 -12 168.68 17.5
2 4 -12 154.98 14
4 -4 12 85.09 10.7
4 4 -12 64.89 22.5
4 -4 -12 86.29 12.5
-4 4 12 71.29 11
-4 4 -12 107.59 17.6
4 4 -12 78.69 18.5
-5 1 -12 53.39 23.4
5 1 -12 70.19 16.8
-1 5 12 53.09 9.2
1 5 12 64.29 10.4
1 5 -12 60.19 14.1
5 -1 -12 53.59 18.4
1 -5 -12 51.29 13.9
-1 5 -12 68.79 11.8
-5 1 12 51.79 18.3
-1 -5 -12 67.39 17.1
-5 3 12 24.9 13.6
5 3 -12 42.7 15.8
-3 5 -12 39.2 15
5 -3 12 53.59 11.2
-3 5 12 47 10.6
3 -5 -12 33.8 12.7
3 5 -12 56.39 18.4
3 5 12 42.1 15.3
-5 3 -12 35.6 25.3
3 5 -12 29.5 20.4
5 -3 -12 36.2 12.9
6 0 -12 104.39 22.2
0 6 12 80.59 10.1
0 -6 -12 71.39 19.1
-6 0 12 61.89 19.9
0 6 -12 99.79 13.6
-6 2 -12 47.7 25.1
6 2 -12 53.09 21.2
6 -2 12 69.19 14.3
-2 6 -12 66.09 15.9
2 6 -12 55.29 14.7
-2 6 12 59.79 10.9
2 6 12 65.69 12.8
6 -2 -12 79.29 17.5
2 -6 -12 75.79 17
-6 2 12 59.89 22.2
-1 0 -13 726.43 19.4
1 0 -13 720.93 15.2
0 -1 -13 567.14 25.3
0 1 13 656.13 22.9
0 1 -13 736.33 23.4
2 1 -13 543.45 13
-1 2 13 566.74 14.3
-1 -2 -13 550.64 17.7
2 -1 -13 602.44 19.2
1 -2 -13 576.14 15.7
-1 2 -13 511.65 14.8
1 2 -13 506.65 17.8
-2 1 -13 560.74 16.4
-2 1 13 556.64 15.9
1 2 13 556.14 23.7
0 3 13 413.06 11.9
0 3 -13 377.66 15.5
0 -3 -13 -5.2 11.4
3 0 -13 414.66 14.1
-3 0 13 366.56 16.7
3 2 -13 321.17 13
-3 2 13 335.27 13.4
2 3 13 330.17 23.8
-3 2 -13 350.46 15.7
-2 3 13 323.67 10.3
3 -2 -13 328.57 15.5
-2 3 -13 334.87 15.1
2 3 -13 307.97 17.6
2 -3 -13 306.97 13
-1 4 -13 271.07 12.7
1 4 -13 264.47 15.3
4 1 -13 274.97 13.2
-1 4 13 295.57 9.7
1 4 13 298.67 12.5
1 -4 -13 278.97 12.3
-1 -4 -13 298.37 18.3
-4 1 -13 340.37 42
4 -1 -13 272.97 18.9
-4 1 13 273.47 19
4 3 -13 170.78 14
-4 3 13 170.88 13.2
3 -4 -13 180.98 16
-3 4 -13 173.38 15.9
-3 4 13 174.38 12.6
3 4 -13 190.88 24.6
4 -3 -13 181.48 15.9
3 4 -13 169.58 22.1
-4 3 -13 192.48 19.2
0 -5 -13 181.18 16.6
0 5 -13 154.48 13.9
5 0 -13 166.58 19.5
0 5 13 158.28 10.7
-5 0 13 144.39 16.9
-5 2 13 140.59 17.9
2 5 -13 119.49 18.4
5 2 -13 106.89 16.8
-2 5 13 157.78 9.9
-5 2 -13 142.09 41.2
2 5 13 135.89 13.4
-2 5 -13 129.39 13.5
2 -5 -13 136.89 13.2
5 -2 -13 137.09 18.3
2 5 -13 116.19 15.5
5 4 -13 61.09 18.1
5 -4 -13 69.69 17
-5 4 13 65.79 13.8
-4 5 13 61.79 12.6
4 -5 -13 109.99 17.7
5 -4 13 70.49 11.2
-5 4 -13 80.29 32
4 5 -13 86.19 27.3
4 5 -13 75.69 24.1
-4 5 -13 87.49 20.7
1 -6 -13 89.59 18
1 6 -13 118.49 15.1
6 1 -13 61.39 23.2
-1 -6 -13 126.59 32.1
-1 6 13 97.99 12.9
1 6 13 110.19 12.1
-1 6 -13 109.99 16.9
6 -1 -13 74.69 19.6
-6 1 13 113.29 26.3
-6 1 -13 91.39 59.29
0 0 -14 299.97 13.1
-1 1 -14 72.59 22.3
1 -1 -14 122.99 17.8
-1 -1 -14 111.59 25.3
-1 1 14 89.19 17.8
-1 1 -14 91.09 19.7
1 1 -14 91.79 12.2
0 2 14 226.08 15.1
-2 0 -14 231.48 23.5
-2 0 -14 231.68 19.5
2 0 -14 229.08 13.5
0 2 -14 234.88 16.2
-2 0 14 220.68 16
0 -2 -14 257.97 17.5
0 2 -14 179.38 20.4
-2 2 14 203.28 11.7
2 -2 -14 193.48 17.2
-2 2 -14 183.48 15.9
2 2 -14 200.98 14.1
1 -3 -14 81.49 15.4
-3 1 -14 82.19 19.8
1 3 14 75.09 14
3 1 -14 70.09 10.9
-1 3 14 78.19 9.5
-1 3 -14 76.99 15.5
3 -1 -14 87.19 15.5
-1 -3 -14 64.39 14.9
1 3 -14 82.39 15.6
1 3 -14 70.29 19.2
-3 1 14 81.99 15.4
-3 3 14 50.39 12.6
-3 3 -14 65.79 13.5
3 -3 -14 68.59 17.4
3 3 -14 57.59 15.3
0 4 14 132.39 11.1
4 0 -14 125.79 13.9
0 4 -14 111.39 15
0 -4 -14 134.39 15.4
-4 0 14 128.29 15.5
-4 2 14 120.19 13.7
4 2 -14 96.99 12.1
2 4 -14 93.49 20.1
2 -4 -14 135.59 12.9
2 4 14 129.89 15.6
-2 4 14 127.09 9.6
-2 -4 -14 125.39 41.4
-2 4 -14 105.59 16.6
4 -2 -14 126.39 17.4
-4 2 -14 104.49 27.5
2 4 -14 94.79 16.3
4 -4 -14 75.89 16
-4 4 14 60.99 12.6
4 4 -14 53.29 19.8
-4 4 -14 75.69 23.6
4 4 -14 43.7 19.5
-5 1 -14 42.2 33.3
5 1 -14 36.6 14.5
-1 5 14 40.8 9.8
1 5 14 41.2 11.2
5 -1 -14 40.6 22.2
1 5 -14 52.29 16
1 -5 -14 58.59 14.5
-1 5 -14 58.09 14.1
-1 -5 -14 47 23.6
-5 1 14 32.2 22.2
-5 3 14 36.5 14.8
5 3 -14 44.6 15.4
-3 5 -14 26.2 19.4
3 5 14 38.4 23.2
-3 5 14 47.8 12.8
3 -5 -14 38.8 17.7
3 5 -14 41.5 21.8
-5 3 -14 54.29 45.6
3 5 -14 31.5 24.4
5 -3 -14 27.9 16.9
0 6 -14 69.49 17.1
0 6 14 70.39 13.4
6 0 -14 78.09 24.9
0 -6 -14 81.39 25.2
-6 0 14 52.89 21.1
-6 2 -14 56.29 26.2
6 2 -14 72.19 21.1
-2 6 14 54.29 13.5
-2 6 -14 52.29 17.8
2 6 14 50.49 16.2
2 6 -14 26.6 19.3
6 -2 -14 28.9 20
2 6 -14 47.6 18.4
2 -6 -14 71.69 20.1
-6 2 14 54.69 26.1
-1 0 -15 250.27 15.2
1 0 -15 252.07 11.5
0 -1 -15 259.87 17.3
0 1 15 248.68 15.6
0 1 -15 260.97 16.3
-1 2 15 149.09 14.7
-2 1 -15 143.59 21.7
2 1 -15 132.49 13.1
-1 -2 -15 140.29 18.9
2 -1 -15 154.18 15.8
1 -2 -15 146.89 21.2
-2 1 -15 133.99 22.7
1 2 15 143.09 22.2
-1 2 -15 108.79 17.5
1 2 -15 164.48 17.5
-2 1 15 141.39 18.1
0 3 15 92.39 12.7
0 -3 -15 94.39 16.5
0 3 -15 69.59 19.3
3 0 -15 89.49 11.6
-3 0 15 86.09 13.8
-3 2 15 57.99 15.8
3 2 -15 55.19 11.4
-2 3 15 52.29 11.7
-3 2 -15 49.2 18.8
3 -2 -15 63.19 20.5
-2 3 -15 54.39 17.4
2 3 -15 63.49 22.5
2 -3 -15 33.2 15.1
-1 4 -15 27.6 15.2
1 4 15 18.4 13.2
1 4 -15 33.2 20.6
4 1 -15 26.2 11.5
-1 4 15 30.5 11.2
-1 -4 -15 21.7 21.6
1 -4 -15 27.4 16.4
-4 1 -15 18.5 30.2
4 -1 -15 18.7 16.4
1 4 -15 23.6 13.9
-4 1 15 30.2 19.8
4 3 -15 5.6 13.6
3 4 -15 11.4 17.9
-4 3 15 12.8 13.3
3 -4 -15 17 18.7
-3 4 15 1.9 11.2
-3 4 -15 15.1 17.3
4 -3 -15 12.2 18.7
3 4 -15 15.8 22.4
-4 3 -15 12.2 28.5
0 -5 -15 0.7 20.7
0 5 -15 21.9 20.3
0 5 15 5.8 11.6
5 0 -15 25.1 15.8
-5 0 15 8.7 15.9
2 5 -15 -0.9 20.9
5 2 -15 7.9 13.5
-2 5 15 8 10.9
2 5 15 4.5 16
-5 2 -15 19.2 26.8
2 -5 -15 39.5 19
-2 5 -15 -0.8 20.5
5 -2 -15 -17.7 21.3
2 5 -15 27.6 20.5
-5 2 15 -1.9 18
1 -6 -15 18.4 22.7
1 6 -15 22 23.7
-1 6 15 9.4 11.4
1 6 15 9.7 14.4
6 1 -15 18.2 18.5
6 -1 -15 -2.8 26.8
-1 6 -15 -6.8 20.9
-1 -6 -15 23.4 48.3
-6 1 15 24.3 26.6
0 0 -16 324.87 12.9
1 1 -16 179.18 11.7
-1 1 -16 168.28 20.8
1 -1 -16 194.88 14.5
-1 -1 -16 176.88 22
-1 1 16 179.38 18.9
-1 1 -16 185.98 18.2
-2 0 -16 281.87 34.3
2 0 -16 274.87 11.4
-2 0 -16 294.27 19.3
0 -2 -16 287.17 24.2
0 2 -16 272.27 20.3
0 2 16 285.27 22.5
0 2 -16 282.07 15
2 -2 -16 236.88 19.1
-2 2 -16 214.28 22.4
-2 2 16 235.88 17.1
2 2 -16 258.97 16.1
-1 3 16 128.49 13.5
-3 1 -16 128.19 30
3 1 -16 120.99 11
-1 3 -16 99.69 22.5
3 -1 -16 136.89 13.8
-1 -3 -16 130.09 22.3
1 3 -16 112.29 17.3
1 3 -16 143.59 17.3
-3 1 16 109.99 23.4
-3 1 -16 117.59 31
1 3 16 128.19 20.9
1 -3 -16 133.89 20.4
-3 3 16 93.49 13
-3 3 -16 92.69 23.3
3 -3 -16 115.19 20.7
3 3 -16 85.29 14.1
0 4 16 148.49 13.1
4 0 -16 123.69 12.8
0 -4 -16 147.89 20
0 4 -16 109.29 24.5
-4 0 16 143.19 14.5
2 4 16 128.59 28.1
4 2 -16 132.19 14.4
2 4 -16 144.89 17.6
-2 4 16 127.39 11.6
2 -4 -16 133.29 17.9
-2 4 -16 124.09 23.1
4 -2 -16 152.08 22.8
-4 2 -16 113.39 43.5
2 4 -16 119.19 23.5
-4 2 16 156.58 20.1
4 4 -16 72.89 16.2
4 -4 -16 64.39 21.4
-4 4 16 79.29 14.2
4 4 -16 0.9 15.9
-4 4 -16 75.09 37.7
1 5 16 68.19 13.6
-1 5 16 63.29 11.2
5 1 -16 55.19 13.4
5 -1 -16 65.39 17.8
1 -5 -16 65.59 19.3
1 5 -16 50.99 26.6
-1 5 -16 64.49 20.3
-5 1 16 67.39 24.8
-1 -5 -16 90.49 43.3
-5 3 16 40.5 19
5 3 -16 43.5 14.7
-3 5 16 51.49 15.9
-3 5 -16 50.19 27.9
3 -5 -16 46.7 20.9
3 5 -16 38.6 23.2
-5 3 -16 40.3 37.2
5 -3 -16 41.8 24.7
3 5 -16 27.9 25.5
0 6 16 53.79 14
6 0 -16 54.69 21.7
0 -6 -16 64.19 34
0 6 -16 54.19 25.7
0 1 -17 289.47 15
-1 0 -17 291.37 14.2
1 0 -17 308.77 13.2
0 -1 -17 316.47 16.6
2 1 -17 247.48 11.1
-1 -2 -17 222.28 29.3
-2 1 -17 188.28 33.1
2 -1 -17 236.98 14.3
1 -2 -17 231.98 22.1
-1 2 -17 242.78 20.6
-2 1 17 223.48 19
-1 2 -17 187.48 20.6
-1 2 17 233.68 20.3
1 2 -17 221.68 17.9
-2 1 -17 229.18 20.8
0 3 17 169.78 17
0 -3 -17 175.18 23.6
0 3 -17 152.38 16.7
3 0 -17 178.28 13.6
0 3 -17 165.48 14.9
-2 3 17 118.69 15.4
3 2 -17 136.69 12.5
-3 2 -17 133.79 30.9
3 -2 -17 147.59 17.4
-2 3 -17 104.49 27.2
2 -3 -17 128.29 28.7
2 3 -17 127.69 17.6
-3 2 17 124.69 16.7
1 4 17 103.19 19.2
-1 4 -17 70.99 28.4
-1 4 17 106.19 14
1 4 -17 88.99 18
4 1 -17 110.59 11.8
-1 -4 -17 112.29 38.4
1 -4 -17 109.79 20.5
4 -1 -17 139.09 17.1
1 4 -17 108.59 17.3
-4 1 17 96.79 20.5
-4 3 17 59.39 18.6
3 4 -17 64.19 15.7
4 3 -17 52.89 16
3 -4 -17 72.69 23.1
-3 4 17 59.69 13.5
-3 4 -17 44.8 32.4
4 -3 -17 55.29 29.9
-4 3 -17 78.09 52.09
3 4 -17 73.79 21.1
0 -5 -17 53.99 32.4
0 5 17 59.89 14.9
0 5 -17 29.4 26.2
5 0 -17 58.69 16.2
2 5 -17 56.79 22.9
2 5 17 49.99 24.5
-2 5 17 32.1 12.7
5 2 -17 42.7 13.9
-5 2 -17 51.09 25.8
2 -5 -17 48.1 22.9
-2 5 -17 49.9 25.1
5 -2 -17 69.89 22.9
2 5 -17 37 23.8
-5 2 17 70.19 27.1
0 0 -18 42.9 11.4
-1 1 -18 141.39 16.6
1 1 -18 148.19 13.3
1 -1 -18 146.29 13.9
-1 -1 -18 133.99 18.6
-1 1 18 139.99 15.8
-1 1 -18 134.69 16.9
-2 0 -18 221.98 48
2 0 -18 218.48 12.6
-2 0 -18 208.78 19.4
0 2 -18 215.78 13.1
0 -2 -18 210.58 21.3
0 2 18 182.58 21.1
0 2 -18 216.68 21.5
2 2 -18 150.28 13.2
2 -2 -18 164.68 18.5
-2 2 -18 168.38 21.6
-2 2 18 148.09 18.1
-2 2 -18 142.39 36.7
-3 1 -18 84.39 22.2
-3 1 -18 91.69 53.89
3 1 -18 109.49 11.4
-1 3 -18 71.39 24.9
3 -1 -18 87.59 14.8
1 3 -18 103.09 13
-1 -3 -18 69.69 37.2
-1 3 -18 101.29 17
-3 1 18 77.69 21.6
1 3 18 79.79 26.2
1 3 -18 74.99 24.4
1 -3 -18 110.99 27.4
-1 3 18 81.09 16.3
-3 3 18 66.79 15.8
3 3 -18 58.09 14.8
-3 3 -18 51.19 41.8
3 -3 -18 59.29 21.1
0 4 18 104.79 15.8
4 0 -18 114.09 12.8
0 -4 -18 96.99 30.2
0 4 -18 75.29 21.9
0 4 -18 89.89 15.6
-2 4 18 103.59 12.9
2 -4 -18 102.29 29.1
4 2 -18 89.39 14.3
2 4 -18 69.59 17.9
-2 4 -18 90.59 34.2
4 -2 -18 69.79 17.4
-4 2 -18 96.69 34.1
2 4 -18 76.09 23.2
-4 2 18 75.59 26.1
1 5 18 44.3 19.9
-1 5 18 43.3 13.4
5 1 -18 32.2 15.1
5 -1 -18 19.9 16.7
1 -5 -18 27.1 35.7
1 5 -18 18.3 24.5
1 5 -18 35.4 22.2
-5 1 18 9.6 20.7
-1 5 -18 42.6 31.3
-1 -5 -18 34.1 32
0 1 -19 417.26 15.1
1 0 -19 435.56 14.7
-1 0 -19 455.05 15.8
0 -1 -19 443.96 15.6
-1 0 -19 410.86 16.4
-2 1 -19 322.37 18.8
-1 -2 -19 345.37 32.7
-2 1 -19 323.97 32.2
2 1 -19 337.47 12
2 -1 -19 324.57 12.6
1 -2 -19 330.57 17.7
-2 1 19 323.27 17.3
-1 2 19 288.87 24.2
-1 2 -19 334.57 19.5
-1 2 -19 343.07 23.7
1 2 -19 307.77 14.1
0 -3 -19 242.58 27
0 3 -19 246.98 18.2
3 0 -19 246.98 12.3
0 3 -19 227.98 25.3
0 3 19 223.68 25
3 2 -19 164.18 15.1
-3 2 -19 209.78 44.7
2 3 -19 186.78 12.9
3 -2 -19 193.08 17.3
-2 3 -19 146.69 32.2
-3 2 -19 156.98 28.1
-3 2 19 184.58 22.2
2 -3 -19 224.18 21.3
2 3 -19 199.58 16.7
-2 3 19 187.58 16.9
-1 4 19 143.09 17.9
-1 4 -19 127.19 25.9
1 4 -19 140.29 18
4 1 -19 155.78 13.2
-1 -4 -19 165.58 33.4
1 -4 -19 176.88 28.5
4 -1 -19 145.99 16.2
-4 1 19 148.69 21.3
1 4 -19 140.49 25.3
1 4 19 135.79 29.7
-3 4 19 108.89 16.7
3 -4 -19 73.69 24.9
4 3 -19 73.99 14.7
-3 4 -19 64.39 38.4
3 4 -19 109.29 15.8
4 -3 -19 81.39 20.9
-4 3 -19 99.79 37
-4 3 19 102.69 23.6
3 4 -19 69.99 19.2
0 -5 -19 86.69 32.5
0 5 19 84.09 18.4
0 5 -19 78.29 23
5 0 -19 69.09 16.9
0 5 -19 78.39 21
0 0 -20 -0.4 11.9
-1 1 -20 20 15.1
1 1 -20 18.3 13.2
1 -1 -20 32.5 12.9
-1 1 -20 15.6 14.9
-1 -1 -20 26.7 17.1
-2 0 -20 17.9 28.5
2 0 -20 9.7 11.9
0 2 -20 0.2 14.1
-2 0 -20 7.5 18.1
0 -2 -20 -0.1 17.2
0 2 -20 19 16.7
2 2 -20 -1.2 13.7
2 -2 -20 3 16.6
-2 2 20 16 21.2
-2 2 -20 9.2 23
-2 2 -20 11.4 22.2
-3 1 -20 0.9 34
-3 1 -20 7.4 21.2
3 1 -20 21.5 13.9
1 3 -20 17.2 14
-1 3 -20 18.3 18.3
3 -1 -20 11.4 12.1
-1 -3 -20 17.9 27.4
-3 1 20 10.4 18.1
-1 3 -20 -4.3 21.9
-1 3 20 -5.7 22.7
1 3 -20 23.4 17.6
1 -3 -20 7.6 19.7
3 3 -20 -4.5 14.7
-3 3 -20 -0.3 30.9
-3 3 -20 -3.6 21
3 -3 -20 8.7 19.8
-3 3 20 16.7 20.5
4 0 -20 11.6 14.1
0 -4 -20 13.2 25.6
0 4 -20 0.5 16.4
0 4 -20 20.8 20.4
0 4 20 7.9 24.7
-2 4 20 10.8 16.5
2 -4 -20 2.9 20.5
4 2 -20 4.3 13.9
-2 4 -20 -4.7 26.4
4 -2 -20 8.6 15.7
-4 2 -20 1.8 27.5
-4 2 20 -5.7 30
-4 2 -20 8.2 37
2 4 -20 8.9 20.2
2 4 -20 1.2 16.6
0 1 -21 7.2 12.8
1 0 -21 7.1 12.6
-1 0 -21 3.2 14.3
0 -1 -21 9.3 14.1
-1 0 -21 2 15.2
1 2 -21 12.4 12.9
-2 1 -21 16.5 22.1
-2 1 -21 7.2 16.7
-1 -2 -21 4.7 22
2 1 -21 4.8 11.3
2 -1 -21 7.9 13.1
1 -2 -21 9.7 16.2
-1 2 21 0.1 18.1
-1 2 -21 18.5 16.7
-1 2 -21 8.6 19.3
0 3 -21 0.8 15
0 -3 -21 -7.5 22.1
3 0 -21 -1 13.1
0 3 21 -3.9 22.5
0 3 -21 -9.8 22.7
2 3 -21 23 17.5
3 2 -21 7.8 14.5
-3 2 -21 13.9 26.9
3 -2 -21 5.1 16
2 3 -21 8.5 11.4
-2 3 -21 0.4 23.3
-2 3 -21 10.2 24.4
-3 2 21 11.4 26.2
-2 3 21 7.1 25
2 -3 -21 9.1 19.1
-3 2 -21 5.1 27.1
-1 4 -21 15.1 17.2
1 4 -21 3 16.7
4 1 -21 0.6 12.6
1 -4 -21 8.5 23.3
-1 -4 -21 -5.2 26.9
4 -1 -21 12.2 13.6
-4 1 21 -4.2 17.4
1 4 21 8.8 28.8
-1 4 -21 16.5 24.1
1 4 -21 6.8 23.3
-1 4 21 6.1 24.1
0 0 -22 81.79 13.5
-1 1 -22 45.7 13.8
1 1 -22 56.69 11.6
-1 1 -22 48.2 14.3
1 -1 -22 57.09 14.3
-1 -1 -22 41.7 16.9
0 2 -22 95.69 15.2
0 2 -22 56.99 16.7
-2 0 -22 68.59 26.1
2 0 -22 61.69 12.7
-2 0 -22 64.49 21.2
0 -2 -22 68.79 17.7
2 2 -22 42.2 13
2 -2 -22 60.59 13.3
-2 2 22 50.09 21.5
-2 2 -22 54.49 19.8
-2 2 -22 52.99 21.5
1 -3 -22 29.6 17.5
-3 1 -22 27.7 31
3 1 -22 50.29 12.6
-1 3 -22 41.6 17.2
-3 1 -22 31.9 24.3
3 -1 -22 17.6 14.4
-1 -3 -22 33.9 25.9
-1 3 22 21.5 26.7
-1 3 -22 50.09 27.1
1 3 -22 30.7 12.9
1 3 -22 27.5 16.6
4 0 -22 40.8 13.4
0 4 -22 38.7 16
0 -4 -22 41.9 22.1
0 4 22 21 33.2
0 4 -22 36.1 28.5
0 1 -23 23 14.3
-1 0 -23 25 15.5
1 0 -23 20.6 13.9
-1 0 -23 20.6 15.1
0 -1 -23 18.5 14.1
0 1 -23 19.8 13.3
-1 2 -23 16.6 17.9
1 2 -23 29.3 14.9
-1 -2 -23 22.5 23.4
2 1 -23 28 13.9
-2 1 -23 15.9 17.8
2 -1 -23 4.3 12
-1 2 -23 17.5 16.2
1 -2 -23 10.6 15
1 2 -23 12.4 10.5
-2 1 -23 14.7 20.8
0 -3 -23 18.6 19.5
3 0 -23 18 14.2
0 3 -23 19 15
0 3 -23 27 20.1
0 0 -24 186.48 14.9
-1 1 -24 140.19 17.9
1 1 -24 129.69 12.8
-1 1 -24 128.29 16.1
-1 -1 -24 118.09 17.9
1 -1 -24 111.49 14.6
-1 -1 -24 121.79 19.3
0 2 -24 148.39 16.5
2 0 -24 131.89 12.3
0 2 -24 138.59 15.9
-2 0 -24 96.89 23.2
-2 0 -24 135.59 27.4
0 -2 -24 143.49 19.1
-2 2 -24 95.19 19.1
2 2 -24 87.49 16
2 -2 -24 117.09 16.1
-2 2 -24 100.89 21.4
0 1 -25 -5.3 14.1
1 0 -25 40 14.2
-1 0 -25 38.6 16.6
-1 0 -25 39.9 16.8
0 1 -25 35.8 15.2
0 -1 -25 29.5 16.7

_iucr_refine_instructions_details 
;

    run-cs2pbcl2i2.res created by SHELXL-2014/7

TITL run-cs2pbcl2i2_a.res in I4/mmm
REM Old TITL run-Cs2PbCl2I2 in I4/mmm
REM SHELXT solution in I4/mmm
REM R1 0.112, Rweak 0.025, Alpha 0.034, Orientation as input
REM Formula found by SHELXT: Cl2 I4 Pb
CELL 0.71073 5.6385 5.6385 18.8791 90 90 90
ZERR 2 0.0008 0.0008 0.0038 0 0 0
LATT 2
SYMM -X,-Y,+Z
SYMM -Y,+X,+Z
SYMM +Y,-X,+Z
SYMM -X,+Y,-Z
SYMM +X,-Y,-Z
SYMM +Y,+X,-Z
SYMM -Y,-X,-Z
SFAC Cl Cs I Pb
UNIT 4 4 4 2
 
L.S. 10
PLAN  20
list 4
fmap 2
acta
REM <olex2.extras>
REM <HklSrc "%.\\run-Cs2PbCl2I2.hkl">
REM </olex2.extras>
 
WGHT    0.032600    9.112101
EXTI    0.000756
FVAR       0.20995
PB01  4    0.500000    0.500000    0.500000    10.06250    0.01928    0.01928 =
         0.04140    0.00000    0.00000    0.00000
CS00  2    0.000000    0.000000    0.368210    10.12500    0.05228    0.05228 =
         0.05052    0.00000    0.00000    0.00000
I003  3    0.500000    0.500000    0.667958    10.12500    0.06479    0.06479 =
         0.04219    0.00000    0.00000    0.00000
CL04  1    0.500000    0.000000    0.500000    10.12500    0.06921    0.01655 =
         0.08004    0.00000    0.00000    0.00000
HKLF 4
 
REM  run-cs2pbcl2i2_a.res in I4/mmm
REM R1 =  0.0306 for     258 Fo > 4sig(Fo)  and  0.0384 for all     280 data
REM     13 parameters refined using      0 restraints
 
END  
     
WGHT      0.0326      9.1032 

REM Highest difference peak  2.015,  deepest hole -1.595,  1-sigma level  0.261
Q1    1   0.0000  0.0000  0.3260  10.12500  0.05    2.01
Q2    1   0.0000  0.0000  0.3887  10.12500  0.05    1.53
Q3    1   0.5000  0.5000  0.5433  10.12500  0.05    1.46
Q4    1   0.5000  0.5000  0.5974  10.12500  0.05    1.45
Q5    1   0.5000  0.5000  0.7230  10.12500  0.05    1.28
Q6    1   0.0000  0.0000  0.4529  10.12500  0.05    1.09
Q7    1   0.0000  0.0000  0.5000  10.06250  0.05    0.68
Q8    1   0.7500  0.7500  0.7500  10.25000  0.05    0.51
Q9    1   0.5000  0.5592  0.5000  10.25000  0.05    0.49
Q10   1   0.9021  0.5000  0.7524  10.50000  0.05    0.47
Q11   1   0.1272  0.0000  0.3485  10.50000  0.05    0.42
Q12   1   0.5000 -0.0712  0.5850  10.50000  0.05    0.42
Q13   1   0.7238  0.5000  0.5884  10.50000  0.05    0.37
Q14   1   0.2379  0.2379  0.4118  10.50000  0.05    0.37
Q15   1   0.0939  0.1397  0.4697  11.00000  0.05    0.36
Q16   1   0.2448  0.1766  0.4173  11.00000  0.05    0.36
Q17   1   0.5000  0.0000  0.7208  10.25000  0.05    0.36
Q18   1   0.1989  0.0000  0.3025  10.50000  0.05    0.35
Q19   1   0.2507  0.2507  0.4730  10.50000  0.05    0.34
Q20   1   0.4060  0.0000  0.4133  10.50000  0.05    0.34

  REM The information below was added by Olex2.
  REM
  REM R1 = 0.0306 for 258 Fo > 4sig(Fo) and 0.0384 for all 2382 data
  REM n/a parameters refined using n/a restraints
  REM Highest difference peak 2.01, deepest hole -1.59
  REM Mean Shift 0, Max Shift 0.000.

  REM +++ Tabular Listing of Refinement Information +++
  REM R1_all = 0.0384
  REM R1_gt = 0.0306
  REM wR_ref = 0.0844
  REM GOOF = 1.242
  REM Shift_max = 0.000
  REM Shift_mean = 0
  REM Reflections_all = 2382
  REM Reflections_gt = 258
  REM Parameters = n/a
  REM Hole = -1.59
  REM Peak = 2.01
  REM Flack = n/a

  
;
_olex2_submission_special_instructions 'No special instructions were received'
