####################################################################### 
# 
# This file contains crystal structure data downloaded from the 
# Cambridge Structural Database (CSD) hosted by the Cambridge 
# Crystallographic Data Centre (CCDC) in cooperation with FIZ Karlsruhe.
# 
# Please note that these data are only for research purposes or private use.
# For detailed information please see under Terms & Conditions.
# Full information about CCDC and FIZ Karlsruhe data access policies and 
# citation guidelines are available at http://www.ccdc.cam.ac.uk/access/V1
# 
# Audit and citation data items may have been added by FIZ Karlsruhe. 
# Please retain this information to preserve the provenance of 
# this file and to allow appropriate attribution of the data. 
# 
#######################################################################

data_25123-ICSD
_database_code_depnum_ccdc_archive 'CCDC 1601045'
_audit_update_record             
;
2018-02-26 deposited with the CCDC.	2024-01-05 downloaded from the CCDC.
;
_database_code_ICSD              25123
_chemical_name_systematic        'Cesium Hexachloroplumbate(II)'
_chemical_formula_sum            'Cl6 Cs4 Pb1'
_cell_length_a                   13.18
_cell_length_b                   13.18
_cell_length_c                   16.64
_cell_angle_alpha                90
_cell_angle_beta                 90
_cell_angle_gamma                120
_cell_volume                     2503.31
_cell_formula_units_Z            6
_symmetry_space_group_name_H-M   'R -3 c H'
_symmetry_Int_Tables_number      167
_symmetry_cell_setting           hexagonal
loop_
_symmetry_equiv_pos_site_id
_symmetry_equiv_pos_as_xyz
1 'x-y, -y, -z+1/2'
2 '-x, -x+y, -z+1/2'
3 'y, x, -z+1/2'
4 'x-y, x, -z'
5 'y, -x+y, -z'
6 '-x, -y, -z'
7 '-x+y, y, z+1/2'
8 'x, x-y, z+1/2'
9 '-y, -x, z+1/2'
10 '-x+y, -x, z'
11 '-y, x-y, z'
12 'x, y, z'
13 'x-y+2/3, -y+1/3, -z+5/6'
14 'x-y+1/3, -y+2/3, -z+1/6'
15 '-x+2/3, -x+y+1/3, -z+5/6'
16 '-x+1/3, -x+y+2/3, -z+1/6'
17 'y+2/3, x+1/3, -z+5/6'
18 'y+1/3, x+2/3, -z+1/6'
19 'x-y+2/3, x+1/3, -z+1/3'
20 'x-y+1/3, x+2/3, -z+2/3'
21 'y+2/3, -x+y+1/3, -z+1/3'
22 'y+1/3, -x+y+2/3, -z+2/3'
23 '-x+2/3, -y+1/3, -z+1/3'
24 '-x+1/3, -y+2/3, -z+2/3'
25 '-x+y+2/3, y+1/3, z+5/6'
26 '-x+y+1/3, y+2/3, z+1/6'
27 'x+2/3, x-y+1/3, z+5/6'
28 'x+1/3, x-y+2/3, z+1/6'
29 '-y+2/3, -x+1/3, z+5/6'
30 '-y+1/3, -x+2/3, z+1/6'
31 '-x+y+2/3, -x+1/3, z+1/3'
32 '-x+y+1/3, -x+2/3, z+2/3'
33 '-y+2/3, x-y+1/3, z+1/3'
34 '-y+1/3, x-y+2/3, z+2/3'
35 'x+2/3, y+1/3, z+1/3'
36 'x+1/3, y+2/3, z+2/3'
loop_
_atom_site_label
_atom_site_type_symbol
_atom_site_fract_x
_atom_site_fract_y
_atom_site_fract_z
Pb1 Pb2+ 0 0 0
Cs1 Cs1+ 0 0 0.25
Cs2 Cs1+ 0.37 0 0.25
Cl1 Cl1- 0.04 0.164 0.095

#End of data_25123-ICSD


